V -t * -v 1.0a5 -a 0
A -t * -n 1 -p 0 -o 0x7fffffff -c 30 -a 1
A -t * -h 1 -m 1073741823 -s 0
c -t * -i 1 -n green
c -t * -i 2 -n Red
n -t * -a 0 -s 0 -S UP -v circle -c black -i black
n -t * -a 1 -s 1 -S UP -v circle -c black -i black
n -t * -a 2 -s 2 -S UP -v circle -c black -i black
n -t * -a 3 -s 3 -S UP -v circle -c black -i black
X -t * -n 4 -r 2Mb -D 20ms -o left
L -t * -s 4 -d 0 -o up
L -t * -s 4 -d 1 -o down
L -t * -s 4 -d 2 -o up
L -t * -s 4 -d 3 -o down
h -t 0.1 -s 2 -d 4 -p cbr -e 1000 -c 1 -i 0 -a 1 -x {2.0 3.0 0 ------- null}
h -t 0.108 -s 2 -d 4 -p cbr -e 1000 -c 1 -i 1 -a 1 -x {2.0 3.0 1 ------- null}
h -t 0.116 -s 2 -d 4 -p cbr -e 1000 -c 1 -i 2 -a 1 -x {2.0 3.0 2 ------- null}
+ -t 0.12 -s 2 -d 4 -p cbr -e 1000 -c 1 -i 0 -a 1 -x {2.0 3.0 0 ------- null}
- -t 0.12 -s 2 -d 4 -p cbr -e 1000 -c 1 -i 0 -a 1 -x {2.0 3.0 0 ------- null}
h -t 0.12 -s 2 -d 4 -p cbr -e 1000 -c 1 -i 0 -a 1 -x {2.0 3.0 -1 ------- null}
d -t 0.120004 -s 1 -d 4 -p cbr -e 1000 -c 1 -i 0 -a 1 -x {2.0 3.0 0 ------- null}
d -t 0.120004 -s 0 -d 4 -p cbr -e 1000 -c 1 -i 0 -a 1 -x {2.0 3.0 0 ------- null}
h -t 0.124 -s 2 -d 4 -p cbr -e 1000 -c 1 -i 3 -a 1 -x {2.0 3.0 3 ------- null}
+ -t 0.128 -s 2 -d 4 -p cbr -e 1000 -c 1 -i 1 -a 1 -x {2.0 3.0 1 ------- null}
- -t 0.128 -s 2 -d 4 -p cbr -e 1000 -c 1 -i 1 -a 1 -x {2.0 3.0 1 ------- null}
h -t 0.128 -s 2 -d 4 -p cbr -e 1000 -c 1 -i 1 -a 1 -x {2.0 3.0 -1 ------- null}
d -t 0.128004 -s 1 -d 4 -p cbr -e 1000 -c 1 -i 1 -a 1 -x {2.0 3.0 1 ------- null}
d -t 0.128004 -s 0 -d 4 -p cbr -e 1000 -c 1 -i 1 -a 1 -x {2.0 3.0 1 ------- null}
h -t 0.132 -s 2 -d 4 -p cbr -e 1000 -c 1 -i 4 -a 1 -x {2.0 3.0 4 ------- null}
+ -t 0.136 -s 2 -d 4 -p cbr -e 1000 -c 1 -i 2 -a 1 -x {2.0 3.0 2 ------- null}
- -t 0.136 -s 2 -d 4 -p cbr -e 1000 -c 1 -i 2 -a 1 -x {2.0 3.0 2 ------- null}
h -t 0.136 -s 2 -d 4 -p cbr -e 1000 -c 1 -i 2 -a 1 -x {2.0 3.0 -1 ------- null}
d -t 0.136004 -s 1 -d 4 -p cbr -e 1000 -c 1 -i 2 -a 1 -x {2.0 3.0 2 ------- null}
d -t 0.136004 -s 0 -d 4 -p cbr -e 1000 -c 1 -i 2 -a 1 -x {2.0 3.0 2 ------- null}
h -t 0.14 -s 2 -d 4 -p cbr -e 1000 -c 1 -i 5 -a 1 -x {2.0 3.0 5 ------- null}
r -t 0.140004 -s 4 -d 3 -p cbr -e 1000 -c 1 -i 0 -a 1 -x {2.0 3.0 0 ------- null}
+ -t 0.144 -s 2 -d 4 -p cbr -e 1000 -c 1 -i 3 -a 1 -x {2.0 3.0 3 ------- null}
- -t 0.144 -s 2 -d 4 -p cbr -e 1000 -c 1 -i 3 -a 1 -x {2.0 3.0 3 ------- null}
h -t 0.144 -s 2 -d 4 -p cbr -e 1000 -c 1 -i 3 -a 1 -x {2.0 3.0 -1 ------- null}
d -t 0.144004 -s 1 -d 4 -p cbr -e 1000 -c 1 -i 3 -a 1 -x {2.0 3.0 3 ------- null}
d -t 0.144004 -s 0 -d 4 -p cbr -e 1000 -c 1 -i 3 -a 1 -x {2.0 3.0 3 ------- null}
h -t 0.148 -s 2 -d 4 -p cbr -e 1000 -c 1 -i 6 -a 1 -x {2.0 3.0 6 ------- null}
r -t 0.148004 -s 4 -d 3 -p cbr -e 1000 -c 1 -i 1 -a 1 -x {2.0 3.0 1 ------- null}
+ -t 0.152 -s 2 -d 4 -p cbr -e 1000 -c 1 -i 4 -a 1 -x {2.0 3.0 4 ------- null}
- -t 0.152 -s 2 -d 4 -p cbr -e 1000 -c 1 -i 4 -a 1 -x {2.0 3.0 4 ------- null}
h -t 0.152 -s 2 -d 4 -p cbr -e 1000 -c 1 -i 4 -a 1 -x {2.0 3.0 -1 ------- null}
d -t 0.152004 -s 1 -d 4 -p cbr -e 1000 -c 1 -i 4 -a 1 -x {2.0 3.0 4 ------- null}
d -t 0.152004 -s 0 -d 4 -p cbr -e 1000 -c 1 -i 4 -a 1 -x {2.0 3.0 4 ------- null}
h -t 0.156 -s 2 -d 4 -p cbr -e 1000 -c 1 -i 7 -a 1 -x {2.0 3.0 7 ------- null}
r -t 0.156004 -s 4 -d 3 -p cbr -e 1000 -c 1 -i 2 -a 1 -x {2.0 3.0 2 ------- null}
+ -t 0.16 -s 2 -d 4 -p cbr -e 1000 -c 1 -i 5 -a 1 -x {2.0 3.0 5 ------- null}
- -t 0.16 -s 2 -d 4 -p cbr -e 1000 -c 1 -i 5 -a 1 -x {2.0 3.0 5 ------- null}
h -t 0.16 -s 2 -d 4 -p cbr -e 1000 -c 1 -i 5 -a 1 -x {2.0 3.0 -1 ------- null}
d -t 0.160004 -s 1 -d 4 -p cbr -e 1000 -c 1 -i 5 -a 1 -x {2.0 3.0 5 ------- null}
d -t 0.160004 -s 0 -d 4 -p cbr -e 1000 -c 1 -i 5 -a 1 -x {2.0 3.0 5 ------- null}
h -t 0.164 -s 2 -d 4 -p cbr -e 1000 -c 1 -i 8 -a 1 -x {2.0 3.0 8 ------- null}
r -t 0.164004 -s 4 -d 3 -p cbr -e 1000 -c 1 -i 3 -a 1 -x {2.0 3.0 3 ------- null}
+ -t 0.168 -s 2 -d 4 -p cbr -e 1000 -c 1 -i 6 -a 1 -x {2.0 3.0 6 ------- null}
- -t 0.168 -s 2 -d 4 -p cbr -e 1000 -c 1 -i 6 -a 1 -x {2.0 3.0 6 ------- null}
h -t 0.168 -s 2 -d 4 -p cbr -e 1000 -c 1 -i 6 -a 1 -x {2.0 3.0 -1 ------- null}
d -t 0.168004 -s 1 -d 4 -p cbr -e 1000 -c 1 -i 6 -a 1 -x {2.0 3.0 6 ------- null}
d -t 0.168004 -s 0 -d 4 -p cbr -e 1000 -c 1 -i 6 -a 1 -x {2.0 3.0 6 ------- null}
h -t 0.172 -s 2 -d 4 -p cbr -e 1000 -c 1 -i 9 -a 1 -x {2.0 3.0 9 ------- null}
r -t 0.172004 -s 4 -d 3 -p cbr -e 1000 -c 1 -i 4 -a 1 -x {2.0 3.0 4 ------- null}
+ -t 0.176 -s 2 -d 4 -p cbr -e 1000 -c 1 -i 7 -a 1 -x {2.0 3.0 7 ------- null}
- -t 0.176 -s 2 -d 4 -p cbr -e 1000 -c 1 -i 7 -a 1 -x {2.0 3.0 7 ------- null}
h -t 0.176 -s 2 -d 4 -p cbr -e 1000 -c 1 -i 7 -a 1 -x {2.0 3.0 -1 ------- null}
d -t 0.176004 -s 1 -d 4 -p cbr -e 1000 -c 1 -i 7 -a 1 -x {2.0 3.0 7 ------- null}
d -t 0.176004 -s 0 -d 4 -p cbr -e 1000 -c 1 -i 7 -a 1 -x {2.0 3.0 7 ------- null}
h -t 0.18 -s 2 -d 4 -p cbr -e 1000 -c 1 -i 10 -a 1 -x {2.0 3.0 10 ------- null}
r -t 0.180004 -s 4 -d 3 -p cbr -e 1000 -c 1 -i 5 -a 1 -x {2.0 3.0 5 ------- null}
+ -t 0.184 -s 2 -d 4 -p cbr -e 1000 -c 1 -i 8 -a 1 -x {2.0 3.0 8 ------- null}
- -t 0.184 -s 2 -d 4 -p cbr -e 1000 -c 1 -i 8 -a 1 -x {2.0 3.0 8 ------- null}
h -t 0.184 -s 2 -d 4 -p cbr -e 1000 -c 1 -i 8 -a 1 -x {2.0 3.0 -1 ------- null}
d -t 0.184004 -s 1 -d 4 -p cbr -e 1000 -c 1 -i 8 -a 1 -x {2.0 3.0 8 ------- null}
d -t 0.184004 -s 0 -d 4 -p cbr -e 1000 -c 1 -i 8 -a 1 -x {2.0 3.0 8 ------- null}
h -t 0.188 -s 2 -d 4 -p cbr -e 1000 -c 1 -i 11 -a 1 -x {2.0 3.0 11 ------- null}
r -t 0.188004 -s 4 -d 3 -p cbr -e 1000 -c 1 -i 6 -a 1 -x {2.0 3.0 6 ------- null}
+ -t 0.192 -s 2 -d 4 -p cbr -e 1000 -c 1 -i 9 -a 1 -x {2.0 3.0 9 ------- null}
- -t 0.192 -s 2 -d 4 -p cbr -e 1000 -c 1 -i 9 -a 1 -x {2.0 3.0 9 ------- null}
h -t 0.192 -s 2 -d 4 -p cbr -e 1000 -c 1 -i 9 -a 1 -x {2.0 3.0 -1 ------- null}
d -t 0.192004 -s 1 -d 4 -p cbr -e 1000 -c 1 -i 9 -a 1 -x {2.0 3.0 9 ------- null}
d -t 0.192004 -s 0 -d 4 -p cbr -e 1000 -c 1 -i 9 -a 1 -x {2.0 3.0 9 ------- null}
h -t 0.196 -s 2 -d 4 -p cbr -e 1000 -c 1 -i 12 -a 1 -x {2.0 3.0 12 ------- null}
r -t 0.196004 -s 4 -d 3 -p cbr -e 1000 -c 1 -i 7 -a 1 -x {2.0 3.0 7 ------- null}
+ -t 0.2 -s 2 -d 4 -p cbr -e 1000 -c 1 -i 10 -a 1 -x {2.0 3.0 10 ------- null}
- -t 0.2 -s 2 -d 4 -p cbr -e 1000 -c 1 -i 10 -a 1 -x {2.0 3.0 10 ------- null}
h -t 0.2 -s 2 -d 4 -p cbr -e 1000 -c 1 -i 10 -a 1 -x {2.0 3.0 -1 ------- null}
d -t 0.200004 -s 1 -d 4 -p cbr -e 1000 -c 1 -i 10 -a 1 -x {2.0 3.0 10 ------- null}
d -t 0.200004 -s 0 -d 4 -p cbr -e 1000 -c 1 -i 10 -a 1 -x {2.0 3.0 10 ------- null}
h -t 0.204 -s 2 -d 4 -p cbr -e 1000 -c 1 -i 13 -a 1 -x {2.0 3.0 13 ------- null}
r -t 0.204004 -s 4 -d 3 -p cbr -e 1000 -c 1 -i 8 -a 1 -x {2.0 3.0 8 ------- null}
+ -t 0.208 -s 2 -d 4 -p cbr -e 1000 -c 1 -i 11 -a 1 -x {2.0 3.0 11 ------- null}
- -t 0.208 -s 2 -d 4 -p cbr -e 1000 -c 1 -i 11 -a 1 -x {2.0 3.0 11 ------- null}
h -t 0.208 -s 2 -d 4 -p cbr -e 1000 -c 1 -i 11 -a 1 -x {2.0 3.0 -1 ------- null}
d -t 0.208004 -s 1 -d 4 -p cbr -e 1000 -c 1 -i 11 -a 1 -x {2.0 3.0 11 ------- null}
d -t 0.208004 -s 0 -d 4 -p cbr -e 1000 -c 1 -i 11 -a 1 -x {2.0 3.0 11 ------- null}
h -t 0.212 -s 2 -d 4 -p cbr -e 1000 -c 1 -i 14 -a 1 -x {2.0 3.0 14 ------- null}
r -t 0.212004 -s 4 -d 3 -p cbr -e 1000 -c 1 -i 9 -a 1 -x {2.0 3.0 9 ------- null}
+ -t 0.216 -s 2 -d 4 -p cbr -e 1000 -c 1 -i 12 -a 1 -x {2.0 3.0 12 ------- null}
- -t 0.216 -s 2 -d 4 -p cbr -e 1000 -c 1 -i 12 -a 1 -x {2.0 3.0 12 ------- null}
h -t 0.216 -s 2 -d 4 -p cbr -e 1000 -c 1 -i 12 -a 1 -x {2.0 3.0 -1 ------- null}
d -t 0.216004 -s 1 -d 4 -p cbr -e 1000 -c 1 -i 12 -a 1 -x {2.0 3.0 12 ------- null}
d -t 0.216004 -s 0 -d 4 -p cbr -e 1000 -c 1 -i 12 -a 1 -x {2.0 3.0 12 ------- null}
h -t 0.22 -s 2 -d 4 -p cbr -e 1000 -c 1 -i 15 -a 1 -x {2.0 3.0 15 ------- null}
r -t 0.220004 -s 4 -d 3 -p cbr -e 1000 -c 1 -i 10 -a 1 -x {2.0 3.0 10 ------- null}
+ -t 0.224 -s 2 -d 4 -p cbr -e 1000 -c 1 -i 13 -a 1 -x {2.0 3.0 13 ------- null}
- -t 0.224 -s 2 -d 4 -p cbr -e 1000 -c 1 -i 13 -a 1 -x {2.0 3.0 13 ------- null}
h -t 0.224 -s 2 -d 4 -p cbr -e 1000 -c 1 -i 13 -a 1 -x {2.0 3.0 -1 ------- null}
d -t 0.224004 -s 1 -d 4 -p cbr -e 1000 -c 1 -i 13 -a 1 -x {2.0 3.0 13 ------- null}
d -t 0.224004 -s 0 -d 4 -p cbr -e 1000 -c 1 -i 13 -a 1 -x {2.0 3.0 13 ------- null}
h -t 0.228 -s 2 -d 4 -p cbr -e 1000 -c 1 -i 16 -a 1 -x {2.0 3.0 16 ------- null}
r -t 0.228004 -s 4 -d 3 -p cbr -e 1000 -c 1 -i 11 -a 1 -x {2.0 3.0 11 ------- null}
+ -t 0.232 -s 2 -d 4 -p cbr -e 1000 -c 1 -i 14 -a 1 -x {2.0 3.0 14 ------- null}
- -t 0.232 -s 2 -d 4 -p cbr -e 1000 -c 1 -i 14 -a 1 -x {2.0 3.0 14 ------- null}
h -t 0.232 -s 2 -d 4 -p cbr -e 1000 -c 1 -i 14 -a 1 -x {2.0 3.0 -1 ------- null}
d -t 0.232004 -s 1 -d 4 -p cbr -e 1000 -c 1 -i 14 -a 1 -x {2.0 3.0 14 ------- null}
d -t 0.232004 -s 0 -d 4 -p cbr -e 1000 -c 1 -i 14 -a 1 -x {2.0 3.0 14 ------- null}
h -t 0.236 -s 2 -d 4 -p cbr -e 1000 -c 1 -i 17 -a 1 -x {2.0 3.0 17 ------- null}
r -t 0.236004 -s 4 -d 3 -p cbr -e 1000 -c 1 -i 12 -a 1 -x {2.0 3.0 12 ------- null}
+ -t 0.24 -s 2 -d 4 -p cbr -e 1000 -c 1 -i 15 -a 1 -x {2.0 3.0 15 ------- null}
- -t 0.24 -s 2 -d 4 -p cbr -e 1000 -c 1 -i 15 -a 1 -x {2.0 3.0 15 ------- null}
h -t 0.24 -s 2 -d 4 -p cbr -e 1000 -c 1 -i 15 -a 1 -x {2.0 3.0 -1 ------- null}
d -t 0.240004 -s 1 -d 4 -p cbr -e 1000 -c 1 -i 15 -a 1 -x {2.0 3.0 15 ------- null}
d -t 0.240004 -s 0 -d 4 -p cbr -e 1000 -c 1 -i 15 -a 1 -x {2.0 3.0 15 ------- null}
h -t 0.244 -s 2 -d 4 -p cbr -e 1000 -c 1 -i 18 -a 1 -x {2.0 3.0 18 ------- null}
r -t 0.244004 -s 4 -d 3 -p cbr -e 1000 -c 1 -i 13 -a 1 -x {2.0 3.0 13 ------- null}
+ -t 0.248 -s 2 -d 4 -p cbr -e 1000 -c 1 -i 16 -a 1 -x {2.0 3.0 16 ------- null}
- -t 0.248 -s 2 -d 4 -p cbr -e 1000 -c 1 -i 16 -a 1 -x {2.0 3.0 16 ------- null}
h -t 0.248 -s 2 -d 4 -p cbr -e 1000 -c 1 -i 16 -a 1 -x {2.0 3.0 -1 ------- null}
d -t 0.248004 -s 1 -d 4 -p cbr -e 1000 -c 1 -i 16 -a 1 -x {2.0 3.0 16 ------- null}
d -t 0.248004 -s 0 -d 4 -p cbr -e 1000 -c 1 -i 16 -a 1 -x {2.0 3.0 16 ------- null}
h -t 0.252 -s 2 -d 4 -p cbr -e 1000 -c 1 -i 19 -a 1 -x {2.0 3.0 19 ------- null}
r -t 0.252004 -s 4 -d 3 -p cbr -e 1000 -c 1 -i 14 -a 1 -x {2.0 3.0 14 ------- null}
+ -t 0.256 -s 2 -d 4 -p cbr -e 1000 -c 1 -i 17 -a 1 -x {2.0 3.0 17 ------- null}
- -t 0.256 -s 2 -d 4 -p cbr -e 1000 -c 1 -i 17 -a 1 -x {2.0 3.0 17 ------- null}
h -t 0.256 -s 2 -d 4 -p cbr -e 1000 -c 1 -i 17 -a 1 -x {2.0 3.0 -1 ------- null}
d -t 0.256004 -s 1 -d 4 -p cbr -e 1000 -c 1 -i 17 -a 1 -x {2.0 3.0 17 ------- null}
d -t 0.256004 -s 0 -d 4 -p cbr -e 1000 -c 1 -i 17 -a 1 -x {2.0 3.0 17 ------- null}
h -t 0.26 -s 2 -d 4 -p cbr -e 1000 -c 1 -i 20 -a 1 -x {2.0 3.0 20 ------- null}
r -t 0.260004 -s 4 -d 3 -p cbr -e 1000 -c 1 -i 15 -a 1 -x {2.0 3.0 15 ------- null}
+ -t 0.264 -s 2 -d 4 -p cbr -e 1000 -c 1 -i 18 -a 1 -x {2.0 3.0 18 ------- null}
- -t 0.264 -s 2 -d 4 -p cbr -e 1000 -c 1 -i 18 -a 1 -x {2.0 3.0 18 ------- null}
h -t 0.264 -s 2 -d 4 -p cbr -e 1000 -c 1 -i 18 -a 1 -x {2.0 3.0 -1 ------- null}
d -t 0.264004 -s 1 -d 4 -p cbr -e 1000 -c 1 -i 18 -a 1 -x {2.0 3.0 18 ------- null}
d -t 0.264004 -s 0 -d 4 -p cbr -e 1000 -c 1 -i 18 -a 1 -x {2.0 3.0 18 ------- null}
h -t 0.268 -s 2 -d 4 -p cbr -e 1000 -c 1 -i 21 -a 1 -x {2.0 3.0 21 ------- null}
r -t 0.268004 -s 4 -d 3 -p cbr -e 1000 -c 1 -i 16 -a 1 -x {2.0 3.0 16 ------- null}
+ -t 0.272 -s 2 -d 4 -p cbr -e 1000 -c 1 -i 19 -a 1 -x {2.0 3.0 19 ------- null}
- -t 0.272 -s 2 -d 4 -p cbr -e 1000 -c 1 -i 19 -a 1 -x {2.0 3.0 19 ------- null}
h -t 0.272 -s 2 -d 4 -p cbr -e 1000 -c 1 -i 19 -a 1 -x {2.0 3.0 -1 ------- null}
d -t 0.272004 -s 1 -d 4 -p cbr -e 1000 -c 1 -i 19 -a 1 -x {2.0 3.0 19 ------- null}
d -t 0.272004 -s 0 -d 4 -p cbr -e 1000 -c 1 -i 19 -a 1 -x {2.0 3.0 19 ------- null}
h -t 0.276 -s 2 -d 4 -p cbr -e 1000 -c 1 -i 22 -a 1 -x {2.0 3.0 22 ------- null}
r -t 0.276004 -s 4 -d 3 -p cbr -e 1000 -c 1 -i 17 -a 1 -x {2.0 3.0 17 ------- null}
+ -t 0.28 -s 2 -d 4 -p cbr -e 1000 -c 1 -i 20 -a 1 -x {2.0 3.0 20 ------- null}
- -t 0.28 -s 2 -d 4 -p cbr -e 1000 -c 1 -i 20 -a 1 -x {2.0 3.0 20 ------- null}
h -t 0.28 -s 2 -d 4 -p cbr -e 1000 -c 1 -i 20 -a 1 -x {2.0 3.0 -1 ------- null}
d -t 0.280004 -s 1 -d 4 -p cbr -e 1000 -c 1 -i 20 -a 1 -x {2.0 3.0 20 ------- null}
d -t 0.280004 -s 0 -d 4 -p cbr -e 1000 -c 1 -i 20 -a 1 -x {2.0 3.0 20 ------- null}
h -t 0.284 -s 2 -d 4 -p cbr -e 1000 -c 1 -i 23 -a 1 -x {2.0 3.0 23 ------- null}
r -t 0.284004 -s 4 -d 3 -p cbr -e 1000 -c 1 -i 18 -a 1 -x {2.0 3.0 18 ------- null}
+ -t 0.288 -s 2 -d 4 -p cbr -e 1000 -c 1 -i 21 -a 1 -x {2.0 3.0 21 ------- null}
- -t 0.288 -s 2 -d 4 -p cbr -e 1000 -c 1 -i 21 -a 1 -x {2.0 3.0 21 ------- null}
h -t 0.288 -s 2 -d 4 -p cbr -e 1000 -c 1 -i 21 -a 1 -x {2.0 3.0 -1 ------- null}
d -t 0.288004 -s 1 -d 4 -p cbr -e 1000 -c 1 -i 21 -a 1 -x {2.0 3.0 21 ------- null}
d -t 0.288004 -s 0 -d 4 -p cbr -e 1000 -c 1 -i 21 -a 1 -x {2.0 3.0 21 ------- null}
h -t 0.292 -s 2 -d 4 -p cbr -e 1000 -c 1 -i 24 -a 1 -x {2.0 3.0 24 ------- null}
r -t 0.292004 -s 4 -d 3 -p cbr -e 1000 -c 1 -i 19 -a 1 -x {2.0 3.0 19 ------- null}
+ -t 0.296 -s 2 -d 4 -p cbr -e 1000 -c 1 -i 22 -a 1 -x {2.0 3.0 22 ------- null}
- -t 0.296 -s 2 -d 4 -p cbr -e 1000 -c 1 -i 22 -a 1 -x {2.0 3.0 22 ------- null}
h -t 0.296 -s 2 -d 4 -p cbr -e 1000 -c 1 -i 22 -a 1 -x {2.0 3.0 -1 ------- null}
d -t 0.296004 -s 1 -d 4 -p cbr -e 1000 -c 1 -i 22 -a 1 -x {2.0 3.0 22 ------- null}
d -t 0.296004 -s 0 -d 4 -p cbr -e 1000 -c 1 -i 22 -a 1 -x {2.0 3.0 22 ------- null}
h -t 0.3 -s 2 -d 4 -p cbr -e 1000 -c 1 -i 25 -a 1 -x {2.0 3.0 25 ------- null}
r -t 0.300004 -s 4 -d 3 -p cbr -e 1000 -c 1 -i 20 -a 1 -x {2.0 3.0 20 ------- null}
+ -t 0.304 -s 2 -d 4 -p cbr -e 1000 -c 1 -i 23 -a 1 -x {2.0 3.0 23 ------- null}
- -t 0.304 -s 2 -d 4 -p cbr -e 1000 -c 1 -i 23 -a 1 -x {2.0 3.0 23 ------- null}
h -t 0.304 -s 2 -d 4 -p cbr -e 1000 -c 1 -i 23 -a 1 -x {2.0 3.0 -1 ------- null}
d -t 0.304004 -s 1 -d 4 -p cbr -e 1000 -c 1 -i 23 -a 1 -x {2.0 3.0 23 ------- null}
d -t 0.304004 -s 0 -d 4 -p cbr -e 1000 -c 1 -i 23 -a 1 -x {2.0 3.0 23 ------- null}
h -t 0.308 -s 2 -d 4 -p cbr -e 1000 -c 1 -i 26 -a 1 -x {2.0 3.0 26 ------- null}
r -t 0.308004 -s 4 -d 3 -p cbr -e 1000 -c 1 -i 21 -a 1 -x {2.0 3.0 21 ------- null}
+ -t 0.312 -s 2 -d 4 -p cbr -e 1000 -c 1 -i 24 -a 1 -x {2.0 3.0 24 ------- null}
- -t 0.312 -s 2 -d 4 -p cbr -e 1000 -c 1 -i 24 -a 1 -x {2.0 3.0 24 ------- null}
h -t 0.312 -s 2 -d 4 -p cbr -e 1000 -c 1 -i 24 -a 1 -x {2.0 3.0 -1 ------- null}
d -t 0.312004 -s 1 -d 4 -p cbr -e 1000 -c 1 -i 24 -a 1 -x {2.0 3.0 24 ------- null}
d -t 0.312004 -s 0 -d 4 -p cbr -e 1000 -c 1 -i 24 -a 1 -x {2.0 3.0 24 ------- null}
h -t 0.316 -s 2 -d 4 -p cbr -e 1000 -c 1 -i 27 -a 1 -x {2.0 3.0 27 ------- null}
r -t 0.316004 -s 4 -d 3 -p cbr -e 1000 -c 1 -i 22 -a 1 -x {2.0 3.0 22 ------- null}
+ -t 0.32 -s 2 -d 4 -p cbr -e 1000 -c 1 -i 25 -a 1 -x {2.0 3.0 25 ------- null}
- -t 0.32 -s 2 -d 4 -p cbr -e 1000 -c 1 -i 25 -a 1 -x {2.0 3.0 25 ------- null}
h -t 0.32 -s 2 -d 4 -p cbr -e 1000 -c 1 -i 25 -a 1 -x {2.0 3.0 -1 ------- null}
d -t 0.320004 -s 1 -d 4 -p cbr -e 1000 -c 1 -i 25 -a 1 -x {2.0 3.0 25 ------- null}
d -t 0.320004 -s 0 -d 4 -p cbr -e 1000 -c 1 -i 25 -a 1 -x {2.0 3.0 25 ------- null}
h -t 0.324 -s 2 -d 4 -p cbr -e 1000 -c 1 -i 28 -a 1 -x {2.0 3.0 28 ------- null}
r -t 0.324004 -s 4 -d 3 -p cbr -e 1000 -c 1 -i 23 -a 1 -x {2.0 3.0 23 ------- null}
+ -t 0.328 -s 2 -d 4 -p cbr -e 1000 -c 1 -i 26 -a 1 -x {2.0 3.0 26 ------- null}
- -t 0.328 -s 2 -d 4 -p cbr -e 1000 -c 1 -i 26 -a 1 -x {2.0 3.0 26 ------- null}
h -t 0.328 -s 2 -d 4 -p cbr -e 1000 -c 1 -i 26 -a 1 -x {2.0 3.0 -1 ------- null}
d -t 0.328004 -s 1 -d 4 -p cbr -e 1000 -c 1 -i 26 -a 1 -x {2.0 3.0 26 ------- null}
d -t 0.328004 -s 0 -d 4 -p cbr -e 1000 -c 1 -i 26 -a 1 -x {2.0 3.0 26 ------- null}
h -t 0.332 -s 2 -d 4 -p cbr -e 1000 -c 1 -i 29 -a 1 -x {2.0 3.0 29 ------- null}
r -t 0.332004 -s 4 -d 3 -p cbr -e 1000 -c 1 -i 24 -a 1 -x {2.0 3.0 24 ------- null}
+ -t 0.336 -s 2 -d 4 -p cbr -e 1000 -c 1 -i 27 -a 1 -x {2.0 3.0 27 ------- null}
- -t 0.336 -s 2 -d 4 -p cbr -e 1000 -c 1 -i 27 -a 1 -x {2.0 3.0 27 ------- null}
h -t 0.336 -s 2 -d 4 -p cbr -e 1000 -c 1 -i 27 -a 1 -x {2.0 3.0 -1 ------- null}
d -t 0.336004 -s 1 -d 4 -p cbr -e 1000 -c 1 -i 27 -a 1 -x {2.0 3.0 27 ------- null}
d -t 0.336004 -s 0 -d 4 -p cbr -e 1000 -c 1 -i 27 -a 1 -x {2.0 3.0 27 ------- null}
h -t 0.34 -s 2 -d 4 -p cbr -e 1000 -c 1 -i 30 -a 1 -x {2.0 3.0 30 ------- null}
r -t 0.340004 -s 4 -d 3 -p cbr -e 1000 -c 1 -i 25 -a 1 -x {2.0 3.0 25 ------- null}
+ -t 0.344 -s 2 -d 4 -p cbr -e 1000 -c 1 -i 28 -a 1 -x {2.0 3.0 28 ------- null}
- -t 0.344 -s 2 -d 4 -p cbr -e 1000 -c 1 -i 28 -a 1 -x {2.0 3.0 28 ------- null}
h -t 0.344 -s 2 -d 4 -p cbr -e 1000 -c 1 -i 28 -a 1 -x {2.0 3.0 -1 ------- null}
d -t 0.344004 -s 1 -d 4 -p cbr -e 1000 -c 1 -i 28 -a 1 -x {2.0 3.0 28 ------- null}
d -t 0.344004 -s 0 -d 4 -p cbr -e 1000 -c 1 -i 28 -a 1 -x {2.0 3.0 28 ------- null}
h -t 0.348 -s 2 -d 4 -p cbr -e 1000 -c 1 -i 31 -a 1 -x {2.0 3.0 31 ------- null}
r -t 0.348004 -s 4 -d 3 -p cbr -e 1000 -c 1 -i 26 -a 1 -x {2.0 3.0 26 ------- null}
+ -t 0.352 -s 2 -d 4 -p cbr -e 1000 -c 1 -i 29 -a 1 -x {2.0 3.0 29 ------- null}
- -t 0.352 -s 2 -d 4 -p cbr -e 1000 -c 1 -i 29 -a 1 -x {2.0 3.0 29 ------- null}
h -t 0.352 -s 2 -d 4 -p cbr -e 1000 -c 1 -i 29 -a 1 -x {2.0 3.0 -1 ------- null}
d -t 0.352004 -s 1 -d 4 -p cbr -e 1000 -c 1 -i 29 -a 1 -x {2.0 3.0 29 ------- null}
d -t 0.352004 -s 0 -d 4 -p cbr -e 1000 -c 1 -i 29 -a 1 -x {2.0 3.0 29 ------- null}
h -t 0.356 -s 2 -d 4 -p cbr -e 1000 -c 1 -i 32 -a 1 -x {2.0 3.0 32 ------- null}
r -t 0.356004 -s 4 -d 3 -p cbr -e 1000 -c 1 -i 27 -a 1 -x {2.0 3.0 27 ------- null}
+ -t 0.36 -s 2 -d 4 -p cbr -e 1000 -c 1 -i 30 -a 1 -x {2.0 3.0 30 ------- null}
- -t 0.36 -s 2 -d 4 -p cbr -e 1000 -c 1 -i 30 -a 1 -x {2.0 3.0 30 ------- null}
h -t 0.36 -s 2 -d 4 -p cbr -e 1000 -c 1 -i 30 -a 1 -x {2.0 3.0 -1 ------- null}
d -t 0.360004 -s 1 -d 4 -p cbr -e 1000 -c 1 -i 30 -a 1 -x {2.0 3.0 30 ------- null}
d -t 0.360004 -s 0 -d 4 -p cbr -e 1000 -c 1 -i 30 -a 1 -x {2.0 3.0 30 ------- null}
h -t 0.364 -s 2 -d 4 -p cbr -e 1000 -c 1 -i 33 -a 1 -x {2.0 3.0 33 ------- null}
r -t 0.364004 -s 4 -d 3 -p cbr -e 1000 -c 1 -i 28 -a 1 -x {2.0 3.0 28 ------- null}
+ -t 0.368 -s 2 -d 4 -p cbr -e 1000 -c 1 -i 31 -a 1 -x {2.0 3.0 31 ------- null}
- -t 0.368 -s 2 -d 4 -p cbr -e 1000 -c 1 -i 31 -a 1 -x {2.0 3.0 31 ------- null}
h -t 0.368 -s 2 -d 4 -p cbr -e 1000 -c 1 -i 31 -a 1 -x {2.0 3.0 -1 ------- null}
d -t 0.368004 -s 1 -d 4 -p cbr -e 1000 -c 1 -i 31 -a 1 -x {2.0 3.0 31 ------- null}
d -t 0.368004 -s 0 -d 4 -p cbr -e 1000 -c 1 -i 31 -a 1 -x {2.0 3.0 31 ------- null}
h -t 0.372 -s 2 -d 4 -p cbr -e 1000 -c 1 -i 34 -a 1 -x {2.0 3.0 34 ------- null}
r -t 0.372004 -s 4 -d 3 -p cbr -e 1000 -c 1 -i 29 -a 1 -x {2.0 3.0 29 ------- null}
+ -t 0.376 -s 2 -d 4 -p cbr -e 1000 -c 1 -i 32 -a 1 -x {2.0 3.0 32 ------- null}
- -t 0.376 -s 2 -d 4 -p cbr -e 1000 -c 1 -i 32 -a 1 -x {2.0 3.0 32 ------- null}
h -t 0.376 -s 2 -d 4 -p cbr -e 1000 -c 1 -i 32 -a 1 -x {2.0 3.0 -1 ------- null}
d -t 0.376004 -s 1 -d 4 -p cbr -e 1000 -c 1 -i 32 -a 1 -x {2.0 3.0 32 ------- null}
d -t 0.376004 -s 0 -d 4 -p cbr -e 1000 -c 1 -i 32 -a 1 -x {2.0 3.0 32 ------- null}
h -t 0.38 -s 2 -d 4 -p cbr -e 1000 -c 1 -i 35 -a 1 -x {2.0 3.0 35 ------- null}
r -t 0.380004 -s 4 -d 3 -p cbr -e 1000 -c 1 -i 30 -a 1 -x {2.0 3.0 30 ------- null}
+ -t 0.384 -s 2 -d 4 -p cbr -e 1000 -c 1 -i 33 -a 1 -x {2.0 3.0 33 ------- null}
- -t 0.384 -s 2 -d 4 -p cbr -e 1000 -c 1 -i 33 -a 1 -x {2.0 3.0 33 ------- null}
h -t 0.384 -s 2 -d 4 -p cbr -e 1000 -c 1 -i 33 -a 1 -x {2.0 3.0 -1 ------- null}
d -t 0.384004 -s 1 -d 4 -p cbr -e 1000 -c 1 -i 33 -a 1 -x {2.0 3.0 33 ------- null}
d -t 0.384004 -s 0 -d 4 -p cbr -e 1000 -c 1 -i 33 -a 1 -x {2.0 3.0 33 ------- null}
h -t 0.388 -s 2 -d 4 -p cbr -e 1000 -c 1 -i 36 -a 1 -x {2.0 3.0 36 ------- null}
r -t 0.388004 -s 4 -d 3 -p cbr -e 1000 -c 1 -i 31 -a 1 -x {2.0 3.0 31 ------- null}
+ -t 0.392 -s 2 -d 4 -p cbr -e 1000 -c 1 -i 34 -a 1 -x {2.0 3.0 34 ------- null}
- -t 0.392 -s 2 -d 4 -p cbr -e 1000 -c 1 -i 34 -a 1 -x {2.0 3.0 34 ------- null}
h -t 0.392 -s 2 -d 4 -p cbr -e 1000 -c 1 -i 34 -a 1 -x {2.0 3.0 -1 ------- null}
d -t 0.392004 -s 1 -d 4 -p cbr -e 1000 -c 1 -i 34 -a 1 -x {2.0 3.0 34 ------- null}
d -t 0.392004 -s 0 -d 4 -p cbr -e 1000 -c 1 -i 34 -a 1 -x {2.0 3.0 34 ------- null}
h -t 0.396 -s 2 -d 4 -p cbr -e 1000 -c 1 -i 37 -a 1 -x {2.0 3.0 37 ------- null}
r -t 0.396004 -s 4 -d 3 -p cbr -e 1000 -c 1 -i 32 -a 1 -x {2.0 3.0 32 ------- null}
+ -t 0.4 -s 2 -d 4 -p cbr -e 1000 -c 1 -i 35 -a 1 -x {2.0 3.0 35 ------- null}
- -t 0.4 -s 2 -d 4 -p cbr -e 1000 -c 1 -i 35 -a 1 -x {2.0 3.0 35 ------- null}
h -t 0.4 -s 2 -d 4 -p cbr -e 1000 -c 1 -i 35 -a 1 -x {2.0 3.0 -1 ------- null}
d -t 0.400004 -s 1 -d 4 -p cbr -e 1000 -c 1 -i 35 -a 1 -x {2.0 3.0 35 ------- null}
d -t 0.400004 -s 0 -d 4 -p cbr -e 1000 -c 1 -i 35 -a 1 -x {2.0 3.0 35 ------- null}
h -t 0.404 -s 2 -d 4 -p cbr -e 1000 -c 1 -i 38 -a 1 -x {2.0 3.0 38 ------- null}
r -t 0.404004 -s 4 -d 3 -p cbr -e 1000 -c 1 -i 33 -a 1 -x {2.0 3.0 33 ------- null}
+ -t 0.408 -s 2 -d 4 -p cbr -e 1000 -c 1 -i 36 -a 1 -x {2.0 3.0 36 ------- null}
- -t 0.408 -s 2 -d 4 -p cbr -e 1000 -c 1 -i 36 -a 1 -x {2.0 3.0 36 ------- null}
h -t 0.408 -s 2 -d 4 -p cbr -e 1000 -c 1 -i 36 -a 1 -x {2.0 3.0 -1 ------- null}
d -t 0.408004 -s 1 -d 4 -p cbr -e 1000 -c 1 -i 36 -a 1 -x {2.0 3.0 36 ------- null}
d -t 0.408004 -s 0 -d 4 -p cbr -e 1000 -c 1 -i 36 -a 1 -x {2.0 3.0 36 ------- null}
h -t 0.412 -s 2 -d 4 -p cbr -e 1000 -c 1 -i 39 -a 1 -x {2.0 3.0 39 ------- null}
r -t 0.412004 -s 4 -d 3 -p cbr -e 1000 -c 1 -i 34 -a 1 -x {2.0 3.0 34 ------- null}
+ -t 0.416 -s 2 -d 4 -p cbr -e 1000 -c 1 -i 37 -a 1 -x {2.0 3.0 37 ------- null}
- -t 0.416 -s 2 -d 4 -p cbr -e 1000 -c 1 -i 37 -a 1 -x {2.0 3.0 37 ------- null}
h -t 0.416 -s 2 -d 4 -p cbr -e 1000 -c 1 -i 37 -a 1 -x {2.0 3.0 -1 ------- null}
d -t 0.416004 -s 1 -d 4 -p cbr -e 1000 -c 1 -i 37 -a 1 -x {2.0 3.0 37 ------- null}
d -t 0.416004 -s 0 -d 4 -p cbr -e 1000 -c 1 -i 37 -a 1 -x {2.0 3.0 37 ------- null}
h -t 0.42 -s 2 -d 4 -p cbr -e 1000 -c 1 -i 40 -a 1 -x {2.0 3.0 40 ------- null}
r -t 0.420004 -s 4 -d 3 -p cbr -e 1000 -c 1 -i 35 -a 1 -x {2.0 3.0 35 ------- null}
+ -t 0.424 -s 2 -d 4 -p cbr -e 1000 -c 1 -i 38 -a 1 -x {2.0 3.0 38 ------- null}
- -t 0.424 -s 2 -d 4 -p cbr -e 1000 -c 1 -i 38 -a 1 -x {2.0 3.0 38 ------- null}
h -t 0.424 -s 2 -d 4 -p cbr -e 1000 -c 1 -i 38 -a 1 -x {2.0 3.0 -1 ------- null}
d -t 0.424004 -s 1 -d 4 -p cbr -e 1000 -c 1 -i 38 -a 1 -x {2.0 3.0 38 ------- null}
d -t 0.424004 -s 0 -d 4 -p cbr -e 1000 -c 1 -i 38 -a 1 -x {2.0 3.0 38 ------- null}
h -t 0.428 -s 2 -d 4 -p cbr -e 1000 -c 1 -i 41 -a 1 -x {2.0 3.0 41 ------- null}
r -t 0.428004 -s 4 -d 3 -p cbr -e 1000 -c 1 -i 36 -a 1 -x {2.0 3.0 36 ------- null}
+ -t 0.432 -s 2 -d 4 -p cbr -e 1000 -c 1 -i 39 -a 1 -x {2.0 3.0 39 ------- null}
- -t 0.432 -s 2 -d 4 -p cbr -e 1000 -c 1 -i 39 -a 1 -x {2.0 3.0 39 ------- null}
h -t 0.432 -s 2 -d 4 -p cbr -e 1000 -c 1 -i 39 -a 1 -x {2.0 3.0 -1 ------- null}
d -t 0.432004 -s 1 -d 4 -p cbr -e 1000 -c 1 -i 39 -a 1 -x {2.0 3.0 39 ------- null}
d -t 0.432004 -s 0 -d 4 -p cbr -e 1000 -c 1 -i 39 -a 1 -x {2.0 3.0 39 ------- null}
h -t 0.436 -s 2 -d 4 -p cbr -e 1000 -c 1 -i 42 -a 1 -x {2.0 3.0 42 ------- null}
r -t 0.436004 -s 4 -d 3 -p cbr -e 1000 -c 1 -i 37 -a 1 -x {2.0 3.0 37 ------- null}
+ -t 0.44 -s 2 -d 4 -p cbr -e 1000 -c 1 -i 40 -a 1 -x {2.0 3.0 40 ------- null}
- -t 0.44 -s 2 -d 4 -p cbr -e 1000 -c 1 -i 40 -a 1 -x {2.0 3.0 40 ------- null}
h -t 0.44 -s 2 -d 4 -p cbr -e 1000 -c 1 -i 40 -a 1 -x {2.0 3.0 -1 ------- null}
d -t 0.440004 -s 1 -d 4 -p cbr -e 1000 -c 1 -i 40 -a 1 -x {2.0 3.0 40 ------- null}
d -t 0.440004 -s 0 -d 4 -p cbr -e 1000 -c 1 -i 40 -a 1 -x {2.0 3.0 40 ------- null}
h -t 0.444 -s 2 -d 4 -p cbr -e 1000 -c 1 -i 43 -a 1 -x {2.0 3.0 43 ------- null}
r -t 0.444004 -s 4 -d 3 -p cbr -e 1000 -c 1 -i 38 -a 1 -x {2.0 3.0 38 ------- null}
+ -t 0.448 -s 2 -d 4 -p cbr -e 1000 -c 1 -i 41 -a 1 -x {2.0 3.0 41 ------- null}
- -t 0.448 -s 2 -d 4 -p cbr -e 1000 -c 1 -i 41 -a 1 -x {2.0 3.0 41 ------- null}
h -t 0.448 -s 2 -d 4 -p cbr -e 1000 -c 1 -i 41 -a 1 -x {2.0 3.0 -1 ------- null}
d -t 0.448004 -s 1 -d 4 -p cbr -e 1000 -c 1 -i 41 -a 1 -x {2.0 3.0 41 ------- null}
d -t 0.448004 -s 0 -d 4 -p cbr -e 1000 -c 1 -i 41 -a 1 -x {2.0 3.0 41 ------- null}
h -t 0.452 -s 2 -d 4 -p cbr -e 1000 -c 1 -i 44 -a 1 -x {2.0 3.0 44 ------- null}
r -t 0.452004 -s 4 -d 3 -p cbr -e 1000 -c 1 -i 39 -a 1 -x {2.0 3.0 39 ------- null}
+ -t 0.456 -s 2 -d 4 -p cbr -e 1000 -c 1 -i 42 -a 1 -x {2.0 3.0 42 ------- null}
- -t 0.456 -s 2 -d 4 -p cbr -e 1000 -c 1 -i 42 -a 1 -x {2.0 3.0 42 ------- null}
h -t 0.456 -s 2 -d 4 -p cbr -e 1000 -c 1 -i 42 -a 1 -x {2.0 3.0 -1 ------- null}
d -t 0.456004 -s 1 -d 4 -p cbr -e 1000 -c 1 -i 42 -a 1 -x {2.0 3.0 42 ------- null}
d -t 0.456004 -s 0 -d 4 -p cbr -e 1000 -c 1 -i 42 -a 1 -x {2.0 3.0 42 ------- null}
h -t 0.46 -s 2 -d 4 -p cbr -e 1000 -c 1 -i 45 -a 1 -x {2.0 3.0 45 ------- null}
r -t 0.460004 -s 4 -d 3 -p cbr -e 1000 -c 1 -i 40 -a 1 -x {2.0 3.0 40 ------- null}
+ -t 0.464 -s 2 -d 4 -p cbr -e 1000 -c 1 -i 43 -a 1 -x {2.0 3.0 43 ------- null}
- -t 0.464 -s 2 -d 4 -p cbr -e 1000 -c 1 -i 43 -a 1 -x {2.0 3.0 43 ------- null}
h -t 0.464 -s 2 -d 4 -p cbr -e 1000 -c 1 -i 43 -a 1 -x {2.0 3.0 -1 ------- null}
d -t 0.464004 -s 1 -d 4 -p cbr -e 1000 -c 1 -i 43 -a 1 -x {2.0 3.0 43 ------- null}
d -t 0.464004 -s 0 -d 4 -p cbr -e 1000 -c 1 -i 43 -a 1 -x {2.0 3.0 43 ------- null}
h -t 0.468 -s 2 -d 4 -p cbr -e 1000 -c 1 -i 46 -a 1 -x {2.0 3.0 46 ------- null}
r -t 0.468004 -s 4 -d 3 -p cbr -e 1000 -c 1 -i 41 -a 1 -x {2.0 3.0 41 ------- null}
+ -t 0.472 -s 2 -d 4 -p cbr -e 1000 -c 1 -i 44 -a 1 -x {2.0 3.0 44 ------- null}
- -t 0.472 -s 2 -d 4 -p cbr -e 1000 -c 1 -i 44 -a 1 -x {2.0 3.0 44 ------- null}
h -t 0.472 -s 2 -d 4 -p cbr -e 1000 -c 1 -i 44 -a 1 -x {2.0 3.0 -1 ------- null}
d -t 0.472004 -s 1 -d 4 -p cbr -e 1000 -c 1 -i 44 -a 1 -x {2.0 3.0 44 ------- null}
d -t 0.472004 -s 0 -d 4 -p cbr -e 1000 -c 1 -i 44 -a 1 -x {2.0 3.0 44 ------- null}
h -t 0.476 -s 2 -d 4 -p cbr -e 1000 -c 1 -i 47 -a 1 -x {2.0 3.0 47 ------- null}
r -t 0.476004 -s 4 -d 3 -p cbr -e 1000 -c 1 -i 42 -a 1 -x {2.0 3.0 42 ------- null}
+ -t 0.48 -s 2 -d 4 -p cbr -e 1000 -c 1 -i 45 -a 1 -x {2.0 3.0 45 ------- null}
- -t 0.48 -s 2 -d 4 -p cbr -e 1000 -c 1 -i 45 -a 1 -x {2.0 3.0 45 ------- null}
h -t 0.48 -s 2 -d 4 -p cbr -e 1000 -c 1 -i 45 -a 1 -x {2.0 3.0 -1 ------- null}
d -t 0.480004 -s 1 -d 4 -p cbr -e 1000 -c 1 -i 45 -a 1 -x {2.0 3.0 45 ------- null}
d -t 0.480004 -s 0 -d 4 -p cbr -e 1000 -c 1 -i 45 -a 1 -x {2.0 3.0 45 ------- null}
h -t 0.484 -s 2 -d 4 -p cbr -e 1000 -c 1 -i 48 -a 1 -x {2.0 3.0 48 ------- null}
r -t 0.484004 -s 4 -d 3 -p cbr -e 1000 -c 1 -i 43 -a 1 -x {2.0 3.0 43 ------- null}
+ -t 0.488 -s 2 -d 4 -p cbr -e 1000 -c 1 -i 46 -a 1 -x {2.0 3.0 46 ------- null}
- -t 0.488 -s 2 -d 4 -p cbr -e 1000 -c 1 -i 46 -a 1 -x {2.0 3.0 46 ------- null}
h -t 0.488 -s 2 -d 4 -p cbr -e 1000 -c 1 -i 46 -a 1 -x {2.0 3.0 -1 ------- null}
d -t 0.488004 -s 1 -d 4 -p cbr -e 1000 -c 1 -i 46 -a 1 -x {2.0 3.0 46 ------- null}
d -t 0.488004 -s 0 -d 4 -p cbr -e 1000 -c 1 -i 46 -a 1 -x {2.0 3.0 46 ------- null}
h -t 0.492 -s 2 -d 4 -p cbr -e 1000 -c 1 -i 49 -a 1 -x {2.0 3.0 49 ------- null}
r -t 0.492004 -s 4 -d 3 -p cbr -e 1000 -c 1 -i 44 -a 1 -x {2.0 3.0 44 ------- null}
+ -t 0.496 -s 2 -d 4 -p cbr -e 1000 -c 1 -i 47 -a 1 -x {2.0 3.0 47 ------- null}
- -t 0.496 -s 2 -d 4 -p cbr -e 1000 -c 1 -i 47 -a 1 -x {2.0 3.0 47 ------- null}
h -t 0.496 -s 2 -d 4 -p cbr -e 1000 -c 1 -i 47 -a 1 -x {2.0 3.0 -1 ------- null}
d -t 0.496004 -s 1 -d 4 -p cbr -e 1000 -c 1 -i 47 -a 1 -x {2.0 3.0 47 ------- null}
d -t 0.496004 -s 0 -d 4 -p cbr -e 1000 -c 1 -i 47 -a 1 -x {2.0 3.0 47 ------- null}
h -t 0.5 -s 2 -d 4 -p cbr -e 1000 -c 1 -i 50 -a 1 -x {2.0 3.0 50 ------- null}
r -t 0.500004 -s 4 -d 3 -p cbr -e 1000 -c 1 -i 45 -a 1 -x {2.0 3.0 45 ------- null}
+ -t 0.504 -s 2 -d 4 -p cbr -e 1000 -c 1 -i 48 -a 1 -x {2.0 3.0 48 ------- null}
- -t 0.504 -s 2 -d 4 -p cbr -e 1000 -c 1 -i 48 -a 1 -x {2.0 3.0 48 ------- null}
h -t 0.504 -s 2 -d 4 -p cbr -e 1000 -c 1 -i 48 -a 1 -x {2.0 3.0 -1 ------- null}
d -t 0.504004 -s 1 -d 4 -p cbr -e 1000 -c 1 -i 48 -a 1 -x {2.0 3.0 48 ------- null}
d -t 0.504004 -s 0 -d 4 -p cbr -e 1000 -c 1 -i 48 -a 1 -x {2.0 3.0 48 ------- null}
h -t 0.508 -s 2 -d 4 -p cbr -e 1000 -c 1 -i 51 -a 1 -x {2.0 3.0 51 ------- null}
r -t 0.508004 -s 4 -d 3 -p cbr -e 1000 -c 1 -i 46 -a 1 -x {2.0 3.0 46 ------- null}
+ -t 0.512 -s 2 -d 4 -p cbr -e 1000 -c 1 -i 49 -a 1 -x {2.0 3.0 49 ------- null}
- -t 0.512 -s 2 -d 4 -p cbr -e 1000 -c 1 -i 49 -a 1 -x {2.0 3.0 49 ------- null}
h -t 0.512 -s 2 -d 4 -p cbr -e 1000 -c 1 -i 49 -a 1 -x {2.0 3.0 -1 ------- null}
d -t 0.512004 -s 1 -d 4 -p cbr -e 1000 -c 1 -i 49 -a 1 -x {2.0 3.0 49 ------- null}
d -t 0.512004 -s 0 -d 4 -p cbr -e 1000 -c 1 -i 49 -a 1 -x {2.0 3.0 49 ------- null}
h -t 0.516 -s 2 -d 4 -p cbr -e 1000 -c 1 -i 52 -a 1 -x {2.0 3.0 52 ------- null}
r -t 0.516004 -s 4 -d 3 -p cbr -e 1000 -c 1 -i 47 -a 1 -x {2.0 3.0 47 ------- null}
+ -t 0.52 -s 2 -d 4 -p cbr -e 1000 -c 1 -i 50 -a 1 -x {2.0 3.0 50 ------- null}
- -t 0.52 -s 2 -d 4 -p cbr -e 1000 -c 1 -i 50 -a 1 -x {2.0 3.0 50 ------- null}
h -t 0.52 -s 2 -d 4 -p cbr -e 1000 -c 1 -i 50 -a 1 -x {2.0 3.0 -1 ------- null}
d -t 0.520004 -s 1 -d 4 -p cbr -e 1000 -c 1 -i 50 -a 1 -x {2.0 3.0 50 ------- null}
d -t 0.520004 -s 0 -d 4 -p cbr -e 1000 -c 1 -i 50 -a 1 -x {2.0 3.0 50 ------- null}
h -t 0.524 -s 2 -d 4 -p cbr -e 1000 -c 1 -i 53 -a 1 -x {2.0 3.0 53 ------- null}
r -t 0.524004 -s 4 -d 3 -p cbr -e 1000 -c 1 -i 48 -a 1 -x {2.0 3.0 48 ------- null}
+ -t 0.528 -s 2 -d 4 -p cbr -e 1000 -c 1 -i 51 -a 1 -x {2.0 3.0 51 ------- null}
- -t 0.528 -s 2 -d 4 -p cbr -e 1000 -c 1 -i 51 -a 1 -x {2.0 3.0 51 ------- null}
h -t 0.528 -s 2 -d 4 -p cbr -e 1000 -c 1 -i 51 -a 1 -x {2.0 3.0 -1 ------- null}