h 0.1 2 4 cbr 1000 ------- 1 2.0 3.0 0 0
h 0.108 2 4 cbr 1000 ------- 1 2.0 3.0 1 1
h 0.116 2 4 cbr 1000 ------- 1 2.0 3.0 2 2
+ 0.12 2 4 cbr 1000 ------- 1 2.0 3.0 0 0
- 0.12 2 4 cbr 1000 ------- 1 2.0 3.0 0 0
d 0.120004 1 4 cbr 1000 ------- 1 2.0 3.0 0 0
d 0.120004 0 4 cbr 1000 ------- 1 2.0 3.0 0 0
h 0.124 2 4 cbr 1000 ------- 1 2.0 3.0 3 3
+ 0.128 2 4 cbr 1000 ------- 1 2.0 3.0 1 1
- 0.128 2 4 cbr 1000 ------- 1 2.0 3.0 1 1
d 0.128004 1 4 cbr 1000 ------- 1 2.0 3.0 1 1
d 0.128004 0 4 cbr 1000 ------- 1 2.0 3.0 1 1
h 0.132 2 4 cbr 1000 ------- 1 2.0 3.0 4 4
+ 0.136 2 4 cbr 1000 ------- 1 2.0 3.0 2 2
- 0.136 2 4 cbr 1000 ------- 1 2.0 3.0 2 2
d 0.136004 1 4 cbr 1000 ------- 1 2.0 3.0 2 2
d 0.136004 0 4 cbr 1000 ------- 1 2.0 3.0 2 2
h 0.14 2 4 cbr 1000 ------- 1 2.0 3.0 5 5
r 0.140004 4 3 cbr 1000 ------- 1 2.0 3.0 0 0
+ 0.144 2 4 cbr 1000 ------- 1 2.0 3.0 3 3
- 0.144 2 4 cbr 1000 ------- 1 2.0 3.0 3 3
d 0.144004 1 4 cbr 1000 ------- 1 2.0 3.0 3 3
d 0.144004 0 4 cbr 1000 ------- 1 2.0 3.0 3 3
h 0.148 2 4 cbr 1000 ------- 1 2.0 3.0 6 6
r 0.148004 4 3 cbr 1000 ------- 1 2.0 3.0 1 1
+ 0.152 2 4 cbr 1000 ------- 1 2.0 3.0 4 4
- 0.152 2 4 cbr 1000 ------- 1 2.0 3.0 4 4
d 0.152004 1 4 cbr 1000 ------- 1 2.0 3.0 4 4
d 0.152004 0 4 cbr 1000 ------- 1 2.0 3.0 4 4
h 0.156 2 4 cbr 1000 ------- 1 2.0 3.0 7 7
r 0.156004 4 3 cbr 1000 ------- 1 2.0 3.0 2 2
+ 0.16 2 4 cbr 1000 ------- 1 2.0 3.0 5 5
- 0.16 2 4 cbr 1000 ------- 1 2.0 3.0 5 5
d 0.160004 1 4 cbr 1000 ------- 1 2.0 3.0 5 5
d 0.160004 0 4 cbr 1000 ------- 1 2.0 3.0 5 5
h 0.164 2 4 cbr 1000 ------- 1 2.0 3.0 8 8
r 0.164004 4 3 cbr 1000 ------- 1 2.0 3.0 3 3
+ 0.168 2 4 cbr 1000 ------- 1 2.0 3.0 6 6
- 0.168 2 4 cbr 1000 ------- 1 2.0 3.0 6 6
d 0.168004 1 4 cbr 1000 ------- 1 2.0 3.0 6 6
d 0.168004 0 4 cbr 1000 ------- 1 2.0 3.0 6 6
h 0.172 2 4 cbr 1000 ------- 1 2.0 3.0 9 9
r 0.172004 4 3 cbr 1000 ------- 1 2.0 3.0 4 4
+ 0.176 2 4 cbr 1000 ------- 1 2.0 3.0 7 7
- 0.176 2 4 cbr 1000 ------- 1 2.0 3.0 7 7
d 0.176004 1 4 cbr 1000 ------- 1 2.0 3.0 7 7
d 0.176004 0 4 cbr 1000 ------- 1 2.0 3.0 7 7
h 0.18 2 4 cbr 1000 ------- 1 2.0 3.0 10 10
r 0.180004 4 3 cbr 1000 ------- 1 2.0 3.0 5 5
+ 0.184 2 4 cbr 1000 ------- 1 2.0 3.0 8 8
- 0.184 2 4 cbr 1000 ------- 1 2.0 3.0 8 8
d 0.184004 1 4 cbr 1000 ------- 1 2.0 3.0 8 8
d 0.184004 0 4 cbr 1000 ------- 1 2.0 3.0 8 8
h 0.188 2 4 cbr 1000 ------- 1 2.0 3.0 11 11
r 0.188004 4 3 cbr 1000 ------- 1 2.0 3.0 6 6
+ 0.192 2 4 cbr 1000 ------- 1 2.0 3.0 9 9
- 0.192 2 4 cbr 1000 ------- 1 2.0 3.0 9 9
d 0.192004 1 4 cbr 1000 ------- 1 2.0 3.0 9 9
d 0.192004 0 4 cbr 1000 ------- 1 2.0 3.0 9 9
h 0.196 2 4 cbr 1000 ------- 1 2.0 3.0 12 12
r 0.196004 4 3 cbr 1000 ------- 1 2.0 3.0 7 7
+ 0.2 2 4 cbr 1000 ------- 1 2.0 3.0 10 10
- 0.2 2 4 cbr 1000 ------- 1 2.0 3.0 10 10
d 0.200004 1 4 cbr 1000 ------- 1 2.0 3.0 10 10
d 0.200004 0 4 cbr 1000 ------- 1 2.0 3.0 10 10
h 0.204 2 4 cbr 1000 ------- 1 2.0 3.0 13 13
r 0.204004 4 3 cbr 1000 ------- 1 2.0 3.0 8 8
+ 0.208 2 4 cbr 1000 ------- 1 2.0 3.0 11 11
- 0.208 2 4 cbr 1000 ------- 1 2.0 3.0 11 11
d 0.208004 1 4 cbr 1000 ------- 1 2.0 3.0 11 11
d 0.208004 0 4 cbr 1000 ------- 1 2.0 3.0 11 11
h 0.212 2 4 cbr 1000 ------- 1 2.0 3.0 14 14
r 0.212004 4 3 cbr 1000 ------- 1 2.0 3.0 9 9
+ 0.216 2 4 cbr 1000 ------- 1 2.0 3.0 12 12
- 0.216 2 4 cbr 1000 ------- 1 2.0 3.0 12 12
d 0.216004 1 4 cbr 1000 ------- 1 2.0 3.0 12 12
d 0.216004 0 4 cbr 1000 ------- 1 2.0 3.0 12 12
h 0.22 2 4 cbr 1000 ------- 1 2.0 3.0 15 15
r 0.220004 4 3 cbr 1000 ------- 1 2.0 3.0 10 10
+ 0.224 2 4 cbr 1000 ------- 1 2.0 3.0 13 13
- 0.224 2 4 cbr 1000 ------- 1 2.0 3.0 13 13
d 0.224004 1 4 cbr 1000 ------- 1 2.0 3.0 13 13
d 0.224004 0 4 cbr 1000 ------- 1 2.0 3.0 13 13
h 0.228 2 4 cbr 1000 ------- 1 2.0 3.0 16 16
r 0.228004 4 3 cbr 1000 ------- 1 2.0 3.0 11 11
+ 0.232 2 4 cbr 1000 ------- 1 2.0 3.0 14 14
- 0.232 2 4 cbr 1000 ------- 1 2.0 3.0 14 14
d 0.232004 1 4 cbr 1000 ------- 1 2.0 3.0 14 14
d 0.232004 0 4 cbr 1000 ------- 1 2.0 3.0 14 14
h 0.236 2 4 cbr 1000 ------- 1 2.0 3.0 17 17
r 0.236004 4 3 cbr 1000 ------- 1 2.0 3.0 12 12
+ 0.24 2 4 cbr 1000 ------- 1 2.0 3.0 15 15
- 0.24 2 4 cbr 1000 ------- 1 2.0 3.0 15 15
d 0.240004 1 4 cbr 1000 ------- 1 2.0 3.0 15 15
d 0.240004 0 4 cbr 1000 ------- 1 2.0 3.0 15 15
h 0.244 2 4 cbr 1000 ------- 1 2.0 3.0 18 18
r 0.244004 4 3 cbr 1000 ------- 1 2.0 3.0 13 13
+ 0.248 2 4 cbr 1000 ------- 1 2.0 3.0 16 16
- 0.248 2 4 cbr 1000 ------- 1 2.0 3.0 16 16
d 0.248004 1 4 cbr 1000 ------- 1 2.0 3.0 16 16
d 0.248004 0 4 cbr 1000 ------- 1 2.0 3.0 16 16
h 0.252 2 4 cbr 1000 ------- 1 2.0 3.0 19 19
r 0.252004 4 3 cbr 1000 ------- 1 2.0 3.0 14 14
+ 0.256 2 4 cbr 1000 ------- 1 2.0 3.0 17 17
- 0.256 2 4 cbr 1000 ------- 1 2.0 3.0 17 17
d 0.256004 1 4 cbr 1000 ------- 1 2.0 3.0 17 17
d 0.256004 0 4 cbr 1000 ------- 1 2.0 3.0 17 17
h 0.26 2 4 cbr 1000 ------- 1 2.0 3.0 20 20
r 0.260004 4 3 cbr 1000 ------- 1 2.0 3.0 15 15
+ 0.264 2 4 cbr 1000 ------- 1 2.0 3.0 18 18
- 0.264 2 4 cbr 1000 ------- 1 2.0 3.0 18 18
d 0.264004 1 4 cbr 1000 ------- 1 2.0 3.0 18 18
d 0.264004 0 4 cbr 1000 ------- 1 2.0 3.0 18 18
h 0.268 2 4 cbr 1000 ------- 1 2.0 3.0 21 21
r 0.268004 4 3 cbr 1000 ------- 1 2.0 3.0 16 16
+ 0.272 2 4 cbr 1000 ------- 1 2.0 3.0 19 19
- 0.272 2 4 cbr 1000 ------- 1 2.0 3.0 19 19
d 0.272004 1 4 cbr 1000 ------- 1 2.0 3.0 19 19
d 0.272004 0 4 cbr 1000 ------- 1 2.0 3.0 19 19
h 0.276 2 4 cbr 1000 ------- 1 2.0 3.0 22 22
r 0.276004 4 3 cbr 1000 ------- 1 2.0 3.0 17 17
+ 0.28 2 4 cbr 1000 ------- 1 2.0 3.0 20 20
- 0.28 2 4 cbr 1000 ------- 1 2.0 3.0 20 20
d 0.280004 1 4 cbr 1000 ------- 1 2.0 3.0 20 20
d 0.280004 0 4 cbr 1000 ------- 1 2.0 3.0 20 20
h 0.284 2 4 cbr 1000 ------- 1 2.0 3.0 23 23
r 0.284004 4 3 cbr 1000 ------- 1 2.0 3.0 18 18
+ 0.288 2 4 cbr 1000 ------- 1 2.0 3.0 21 21
- 0.288 2 4 cbr 1000 ------- 1 2.0 3.0 21 21
d 0.288004 1 4 cbr 1000 ------- 1 2.0 3.0 21 21
d 0.288004 0 4 cbr 1000 ------- 1 2.0 3.0 21 21
h 0.292 2 4 cbr 1000 ------- 1 2.0 3.0 24 24
r 0.292004 4 3 cbr 1000 ------- 1 2.0 3.0 19 19
+ 0.296 2 4 cbr 1000 ------- 1 2.0 3.0 22 22
- 0.296 2 4 cbr 1000 ------- 1 2.0 3.0 22 22
d 0.296004 1 4 cbr 1000 ------- 1 2.0 3.0 22 22
d 0.296004 0 4 cbr 1000 ------- 1 2.0 3.0 22 22
h 0.3 2 4 cbr 1000 ------- 1 2.0 3.0 25 25
r 0.300004 4 3 cbr 1000 ------- 1 2.0 3.0 20 20
+ 0.304 2 4 cbr 1000 ------- 1 2.0 3.0 23 23
- 0.304 2 4 cbr 1000 ------- 1 2.0 3.0 23 23
d 0.304004 1 4 cbr 1000 ------- 1 2.0 3.0 23 23
d 0.304004 0 4 cbr 1000 ------- 1 2.0 3.0 23 23
h 0.308 2 4 cbr 1000 ------- 1 2.0 3.0 26 26
r 0.308004 4 3 cbr 1000 ------- 1 2.0 3.0 21 21
+ 0.312 2 4 cbr 1000 ------- 1 2.0 3.0 24 24
- 0.312 2 4 cbr 1000 ------- 1 2.0 3.0 24 24
d 0.312004 1 4 cbr 1000 ------- 1 2.0 3.0 24 24
d 0.312004 0 4 cbr 1000 ------- 1 2.0 3.0 24 24
h 0.316 2 4 cbr 1000 ------- 1 2.0 3.0 27 27
r 0.316004 4 3 cbr 1000 ------- 1 2.0 3.0 22 22
+ 0.32 2 4 cbr 1000 ------- 1 2.0 3.0 25 25
- 0.32 2 4 cbr 1000 ------- 1 2.0 3.0 25 25
d 0.320004 1 4 cbr 1000 ------- 1 2.0 3.0 25 25
d 0.320004 0 4 cbr 1000 ------- 1 2.0 3.0 25 25
h 0.324 2 4 cbr 1000 ------- 1 2.0 3.0 28 28
r 0.324004 4 3 cbr 1000 ------- 1 2.0 3.0 23 23
+ 0.328 2 4 cbr 1000 ------- 1 2.0 3.0 26 26
- 0.328 2 4 cbr 1000 ------- 1 2.0 3.0 26 26
d 0.328004 1 4 cbr 1000 ------- 1 2.0 3.0 26 26
d 0.328004 0 4 cbr 1000 ------- 1 2.0 3.0 26 26
h 0.332 2 4 cbr 1000 ------- 1 2.0 3.0 29 29
r 0.332004 4 3 cbr 1000 ------- 1 2.0 3.0 24 24
+ 0.336 2 4 cbr 1000 ------- 1 2.0 3.0 27 27
- 0.336 2 4 cbr 1000 ------- 1 2.0 3.0 27 27
d 0.336004 1 4 cbr 1000 ------- 1 2.0 3.0 27 27
d 0.336004 0 4 cbr 1000 ------- 1 2.0 3.0 27 27
h 0.34 2 4 cbr 1000 ------- 1 2.0 3.0 30 30
r 0.340004 4 3 cbr 1000 ------- 1 2.0 3.0 25 25
+ 0.344 2 4 cbr 1000 ------- 1 2.0 3.0 28 28
- 0.344 2 4 cbr 1000 ------- 1 2.0 3.0 28 28
d 0.344004 1 4 cbr 1000 ------- 1 2.0 3.0 28 28
d 0.344004 0 4 cbr 1000 ------- 1 2.0 3.0 28 28
h 0.348 2 4 cbr 1000 ------- 1 2.0 3.0 31 31
r 0.348004 4 3 cbr 1000 ------- 1 2.0 3.0 26 26
+ 0.352 2 4 cbr 1000 ------- 1 2.0 3.0 29 29
- 0.352 2 4 cbr 1000 ------- 1 2.0 3.0 29 29
d 0.352004 1 4 cbr 1000 ------- 1 2.0 3.0 29 29
d 0.352004 0 4 cbr 1000 ------- 1 2.0 3.0 29 29
h 0.356 2 4 cbr 1000 ------- 1 2.0 3.0 32 32
r 0.356004 4 3 cbr 1000 ------- 1 2.0 3.0 27 27
+ 0.36 2 4 cbr 1000 ------- 1 2.0 3.0 30 30
- 0.36 2 4 cbr 1000 ------- 1 2.0 3.0 30 30
d 0.360004 1 4 cbr 1000 ------- 1 2.0 3.0 30 30
d 0.360004 0 4 cbr 1000 ------- 1 2.0 3.0 30 30
h 0.364 2 4 cbr 1000 ------- 1 2.0 3.0 33 33
r 0.364004 4 3 cbr 1000 ------- 1 2.0 3.0 28 28
+ 0.368 2 4 cbr 1000 ------- 1 2.0 3.0 31 31
- 0.368 2 4 cbr 1000 ------- 1 2.0 3.0 31 31
d 0.368004 1 4 cbr 1000 ------- 1 2.0 3.0 31 31
d 0.368004 0 4 cbr 1000 ------- 1 2.0 3.0 31 31
h 0.372 2 4 cbr 1000 ------- 1 2.0 3.0 34 34
r 0.372004 4 3 cbr 1000 ------- 1 2.0 3.0 29 29
+ 0.376 2 4 cbr 1000 ------- 1 2.0 3.0 32 32
- 0.376 2 4 cbr 1000 ------- 1 2.0 3.0 32 32
d 0.376004 1 4 cbr 1000 ------- 1 2.0 3.0 32 32
d 0.376004 0 4 cbr 1000 ------- 1 2.0 3.0 32 32
h 0.38 2 4 cbr 1000 ------- 1 2.0 3.0 35 35
r 0.380004 4 3 cbr 1000 ------- 1 2.0 3.0 30 30
+ 0.384 2 4 cbr 1000 ------- 1 2.0 3.0 33 33
- 0.384 2 4 cbr 1000 ------- 1 2.0 3.0 33 33
d 0.384004 1 4 cbr 1000 ------- 1 2.0 3.0 33 33
d 0.384004 0 4 cbr 1000 ------- 1 2.0 3.0 33 33
h 0.388 2 4 cbr 1000 ------- 1 2.0 3.0 36 36
r 0.388004 4 3 cbr 1000 ------- 1 2.0 3.0 31 31
+ 0.392 2 4 cbr 1000 ------- 1 2.0 3.0 34 34
- 0.392 2 4 cbr 1000 ------- 1 2.0 3.0 34 34
d 0.392004 1 4 cbr 1000 ------- 1 2.0 3.0 34 34
d 0.392004 0 4 cbr 1000 ------- 1 2.0 3.0 34 34
h 0.396 2 4 cbr 1000 ------- 1 2.0 3.0 37 37
r 0.396004 4 3 cbr 1000 ------- 1 2.0 3.0 32 32
+ 0.4 2 4 cbr 1000 ------- 1 2.0 3.0 35 35
- 0.4 2 4 cbr 1000 ------- 1 2.0 3.0 35 35
d 0.400004 1 4 cbr 1000 ------- 1 2.0 3.0 35 35
d 0.400004 0 4 cbr 1000 ------- 1 2.0 3.0 35 35
h 0.404 2 4 cbr 1000 ------- 1 2.0 3.0 38 38
r 0.404004 4 3 cbr 1000 ------- 1 2.0 3.0 33 33
+ 0.408 2 4 cbr 1000 ------- 1 2.0 3.0 36 36
- 0.408 2 4 cbr 1000 ------- 1 2.0 3.0 36 36
d 0.408004 1 4 cbr 1000 ------- 1 2.0 3.0 36 36
d 0.408004 0 4 cbr 1000 ------- 1 2.0 3.0 36 36
h 0.412 2 4 cbr 1000 ------- 1 2.0 3.0 39 39
r 0.412004 4 3 cbr 1000 ------- 1 2.0 3.0 34 34
+ 0.416 2 4 cbr 1000 ------- 1 2.0 3.0 37 37
- 0.416 2 4 cbr 1000 ------- 1 2.0 3.0 37 37
d 0.416004 1 4 cbr 1000 ------- 1 2.0 3.0 37 37
d 0.416004 0 4 cbr 1000 ------- 1 2.0 3.0 37 37
h 0.42 2 4 cbr 1000 ------- 1 2.0 3.0 40 40
r 0.420004 4 3 cbr 1000 ------- 1 2.0 3.0 35 35
+ 0.424 2 4 cbr 1000 ------- 1 2.0 3.0 38 38
- 0.424 2 4 cbr 1000 ------- 1 2.0 3.0 38 38
d 0.424004 1 4 cbr 1000 ------- 1 2.0 3.0 38 38
d 0.424004 0 4 cbr 1000 ------- 1 2.0 3.0 38 38
h 0.428 2 4 cbr 1000 ------- 1 2.0 3.0 41 41
r 0.428004 4 3 cbr 1000 ------- 1 2.0 3.0 36 36
+ 0.432 2 4 cbr 1000 ------- 1 2.0 3.0 39 39
- 0.432 2 4 cbr 1000 ------- 1 2.0 3.0 39 39
d 0.432004 1 4 cbr 1000 ------- 1 2.0 3.0 39 39
d 0.432004 0 4 cbr 1000 ------- 1 2.0 3.0 39 39
h 0.436 2 4 cbr 1000 ------- 1 2.0 3.0 42 42
r 0.436004 4 3 cbr 1000 ------- 1 2.0 3.0 37 37
+ 0.44 2 4 cbr 1000 ------- 1 2.0 3.0 40 40
- 0.44 2 4 cbr 1000 ------- 1 2.0 3.0 40 40
d 0.440004 1 4 cbr 1000 ------- 1 2.0 3.0 40 40
d 0.440004 0 4 cbr 1000 ------- 1 2.0 3.0 40 40
h 0.444 2 4 cbr 1000 ------- 1 2.0 3.0 43 43
r 0.444004 4 3 cbr 1000 ------- 1 2.0 3.0 38 38
+ 0.448 2 4 cbr 1000 ------- 1 2.0 3.0 41 41
- 0.448 2 4 cbr 1000 ------- 1 2.0 3.0 41 41
d 0.448004 1 4 cbr 1000 ------- 1 2.0 3.0 41 41
d 0.448004 0 4 cbr 1000 ------- 1 2.0 3.0 41 41
h 0.452 2 4 cbr 1000 ------- 1 2.0 3.0 44 44
r 0.452004 4 3 cbr 1000 ------- 1 2.0 3.0 39 39
+ 0.456 2 4 cbr 1000 ------- 1 2.0 3.0 42 42
- 0.456 2 4 cbr 1000 ------- 1 2.0 3.0 42 42
d 0.456004 1 4 cbr 1000 ------- 1 2.0 3.0 42 42
d 0.456004 0 4 cbr 1000 ------- 1 2.0 3.0 42 42
h 0.46 2 4 cbr 1000 ------- 1 2.0 3.0 45 45
r 0.460004 4 3 cbr 1000 ------- 1 2.0 3.0 40 40
+ 0.464 2 4 cbr 1000 ------- 1 2.0 3.0 43 43
- 0.464 2 4 cbr 1000 ------- 1 2.0 3.0 43 43
d 0.464004 1 4 cbr 1000 ------- 1 2.0 3.0 43 43
d 0.464004 0 4 cbr 1000 ------- 1 2.0 3.0 43 43
h 0.468 2 4 cbr 1000 ------- 1 2.0 3.0 46 46
r 0.468004 4 3 cbr 1000 ------- 1 2.0 3.0 41 41
+ 0.472 2 4 cbr 1000 ------- 1 2.0 3.0 44 44
- 0.472 2 4 cbr 1000 ------- 1 2.0 3.0 44 44
d 0.472004 1 4 cbr 1000 ------- 1 2.0 3.0 44 44
d 0.472004 0 4 cbr 1000 ------- 1 2.0 3.0 44 44
h 0.476 2 4 cbr 1000 ------- 1 2.0 3.0 47 47
r 0.476004 4 3 cbr 1000 ------- 1 2.0 3.0 42 42
+ 0.48 2 4 cbr 1000 ------- 1 2.0 3.0 45 45
- 0.48 2 4 cbr 1000 ------- 1 2.0 3.0 45 45
d 0.480004 1 4 cbr 1000 ------- 1 2.0 3.0 45 45
d 0.480004 0 4 cbr 1000 ------- 1 2.0 3.0 45 45
h 0.484 2 4 cbr 1000 ------- 1 2.0 3.0 48 48
r 0.484004 4 3 cbr 1000 ------- 1 2.0 3.0 43 43
+ 0.488 2 4 cbr 1000 ------- 1 2.0 3.0 46 46
- 0.488 2 4 cbr 1000 ------- 1 2.0 3.0 46 46
d 0.488004 1 4 cbr 1000 ------- 1 2.0 3.0 46 46
d 0.488004 0 4 cbr 1000 ------- 1 2.0 3.0 46 46
h 0.492 2 4 cbr 1000 ------- 1 2.0 3.0 49 49
r 0.492004 4 3 cbr 1000 ------- 1 2.0 3.0 44 44
+ 0.496 2 4 cbr 1000 ------- 1 2.0 3.0 47 47
- 0.496 2 4 cbr 1000 ------- 1 2.0 3.0 47 47
d 0.496004 1 4 cbr 1000 ------- 1 2.0 3.0 47 47
d 0.496004 0 4 cbr 1000 ------- 1 2.0 3.0 47 47
h 0.5 2 4 cbr 1000 ------- 1 2.0 3.0 50 50
r 0.500004 4 3 cbr 1000 ------- 1 2.0 3.0 45 45
+ 0.504 2 4 cbr 1000 ------- 1 2.0 3.0 48 48
- 0.504 2 4 cbr 1000 ------- 1 2.0 3.0 48 48
d 0.504004 1 4 cbr 1000 ------- 1 2.0 3.0 48 48
d 0.504004 0 4 cbr 1000 ------- 1 2.0 3.0 48 48
h 0.508 2 4 cbr 1000 ------- 1 2.0 3.0 51 51
r 0.508004 4 3 cbr 1000 ------- 1 2.0 3.0 46 46
+ 0.512 2 4 cbr 1000 ------- 1 2.0 3.0 49 49
- 0.512 2 4 cbr 1000 ------- 1 2.0 3.0 49 49
d 0.512004 1 4 cbr 1000 ------- 1 2.0 3.0 49 49
d 0.512004 0 4 cbr 1000 ------- 1 2.0 3.0 49 49
h 0.516 2 4 cbr 1000 ------- 1 2.0 3.0 52 52
r 0.516004 4 3 cbr 1000 ------- 1 2.0 3.0 47 47
+ 0.52 2 4 cbr 1000 ------- 1 2.0 3.0 50 50
- 0.52 2 4 cbr 1000 ------- 1 2.0 3.0 50 50
d 0.520004 1 4 cbr 1000 ------- 1 2.0 3.0 50 50
d 0.520004 0 4 cbr 1000 ------- 1 2.0 3.0 50 50
h 0.524 2 4 cbr 1000 ------- 1 2.0 3.0 53 53
r 0.524004 4 3 cbr 1000 ------- 1 2.0 3.0 48 48
+ 0.528 2 4 cbr 1000 ------- 1 2.0 3.0 51 51
- 0.528 2 4 cbr 1000 ------- 1 2.0 3.0 51 51
d 0.528004 1 4 cbr 1000 ------- 1 2.0 3.0 51 51
d 0.528004 0 4 cbr 1000 ------- 1 2.0 3.0 51 51
h 0.532 2 4 cbr 1000 ------- 1 2.0 3.0 54 54
r 0.532004 4 3 cbr 1000 ------- 1 2.0 3.0 49 49
+ 0.536 2 4 cbr 1000 ------- 1 2.0 3.0 52 52
- 0.536 2 4 cbr 1000 ------- 1 2.0 3.0 52 52
d 0.536004 1 4 cbr 1000 ------- 1 2.0 3.0 52 52
d 0.536004 0 4 cbr 1000 ------- 1 2.0 3.0 52 52
h 0.54 2 4 cbr 1000 ------- 1 2.0 3.0 55 55
r 0.540004 4 3 cbr 1000 ------- 1 2.0 3.0 50 50
+ 0.544 2 4 cbr 1000 ------- 1 2.0 3.0 53 53
- 0.544 2 4 cbr 1000 ------- 1 2.0 3.0 53 53
d 0.544004 1 4 cbr 1000 ------- 1 2.0 3.0 53 53
d 0.544004 0 4 cbr 1000 ------- 1 2.0 3.0 53 53
h 0.548 2 4 cbr 1000 ------- 1 2.0 3.0 56 56
r 0.548004 4 3 cbr 1000 ------- 1 2.0 3.0 51 51
+ 0.552 2 4 cbr 1000 ------- 1 2.0 3.0 54 54
- 0.552 2 4 cbr 1000 ------- 1 2.0 3.0 54 54
d 0.552004 1 4 cbr 1000 ------- 1 2.0 3.0 54 54
d 0.552004 0 4 cbr 1000 ------- 1 2.0 3.0 54 54
h 0.556 2 4 cbr 1000 ------- 1 2.0 3.0 57 57
r 0.556004 4 3 cbr 1000 ------- 1 2.0 3.0 52 52
+ 0.56 2 4 cbr 1000 ------- 1 2.0 3.0 55 55
- 0.56 2 4 cbr 1000 ------- 1 2.0 3.0 55 55
d 0.560004 1 4 cbr 1000 ------- 1 2.0 3.0 55 55
d 0.560004 0 4 cbr 1000 ------- 1 2.0 3.0 55 55
h 0.564 2 4 cbr 1000 ------- 1 2.0 3.0 58 58
r 0.564004 4 3 cbr 1000 ------- 1 2.0 3.0 53 53
+ 0.568 2 4 cbr 1000 ------- 1 2.0 3.0 56 56
- 0.568 2 4 cbr 1000 ------- 1 2.0 3.0 56 56
d 0.568004 1 4 cbr 1000 ------- 1 2.0 3.0 56 56
d 0.568004 0 4 cbr 1000 ------- 1 2.0 3.0 56 56
h 0.572 2 4 cbr 1000 ------- 1 2.0 3.0 59 59
r 0.572004 4 3 cbr 1000 ------- 1 2.0 3.0 54 54
+ 0.576 2 4 cbr 1000 ------- 1 2.0 3.0 57 57
- 0.576 2 4 cbr 1000 ------- 1 2.0 3.0 57 57
d 0.576004 1 4 cbr 1000 ------- 1 2.0 3.0 57 57
d 0.576004 0 4 cbr 1000 ------- 1 2.0 3.0 57 57
h 0.58 2 4 cbr 1000 ------- 1 2.0 3.0 60 60
r 0.580004 4 3 cbr 1000 ------- 1 2.0 3.0 55 55
+ 0.584 2 4 cbr 1000 ------- 1 2.0 3.0 58 58
- 0.584 2 4 cbr 1000 ------- 1 2.0 3.0 58 58
d 0.584004 1 4 cbr 1000 ------- 1 2.0 3.0 58 58
d 0.584004 0 4 cbr 1000 ------- 1 2.0 3.0 58 58
h 0.588 2 4 cbr 1000 ------- 1 2.0 3.0 61 61
r 0.588004 4 3 cbr 1000 ------- 1 2.0 3.0 56 56
+ 0.592 2 4 cbr 1000 ------- 1 2.0 3.0 59 59
- 0.592 2 4 cbr 1000 ------- 1 2.0 3.0 59 59
d 0.592004 1 4 cbr 1000 ------- 1 2.0 3.0 59 59
d 0.592004 0 4 cbr 1000 ------- 1 2.0 3.0 59 59
h 0.596 2 4 cbr 1000 ------- 1 2.0 3.0 62 62
r 0.596004 4 3 cbr 1000 ------- 1 2.0 3.0 57 57
+ 0.6 2 4 cbr 1000 ------- 1 2.0 3.0 60 60
- 0.6 2 4 cbr 1000 ------- 1 2.0 3.0 60 60
d 0.600004 1 4 cbr 1000 ------- 1 2.0 3.0 60 60
d 0.600004 0 4 cbr 1000 ------- 1 2.0 3.0 60 60
h 0.604 2 4 cbr 1000 ------- 1 2.0 3.0 63 63
r 0.604004 4 3 cbr 1000 ------- 1 2.0 3.0 58 58
+ 0.608 2 4 cbr 1000 ------- 1 2.0 3.0 61 61
- 0.608 2 4 cbr 1000 ------- 1 2.0 3.0 61 61
d 0.608004 1 4 cbr 1000 ------- 1 2.0 3.0 61 61
d 0.608004 0 4 cbr 1000 ------- 1 2.0 3.0 61 61
h 0.612 2 4 cbr 1000 ------- 1 2.0 3.0 64 64
r 0.612004 4 3 cbr 1000 ------- 1 2.0 3.0 59 59
+ 0.616 2 4 cbr 1000 ------- 1 2.0 3.0 62 62
- 0.616 2 4 cbr 1000 ------- 1 2.0 3.0 62 62
d 0.616004 1 4 cbr 1000 ------- 1 2.0 3.0 62 62
d 0.616004 0 4 cbr 1000 ------- 1 2.0 3.0 62 62
h 0.62 2 4 cbr 1000 ------- 1 2.0 3.0 65 65
r 0.620004 4 3 cbr 1000 ------- 1 2.0 3.0 60 60
+ 0.624 2 4 cbr 1000 ------- 1 2.0 3.0 63 63
- 0.624 2 4 cbr 1000 ------- 1 2.0 3.0 63 63
d 0.624004 1 4 cbr 1000 ------- 1 2.0 3.0 63 63
d 0.624004 0 4 cbr 1000 ------- 1 2.0 3.0 63 63
h 0.628 2 4 cbr 1000 ------- 1 2.0 3.0 66 66
r 0.628004 4 3 cbr 1000 ------- 1 2.0 3.0 61 61
+ 0.632 2 4 cbr 1000 ------- 1 2.0 3.0 64 64
- 0.632 2 4 cbr 1000 ------- 1 2.0 3.0 64 64
d 0.632004 1 4 cbr 1000 ------- 1 2.0 3.0 64 64
d 0.632004 0 4 cbr 1000 ------- 1 2.0 3.0 64 64
h 0.636 2 4 cbr 1000 ------- 1 2.0 3.0 67 67
r 0.636004 4 3 cbr 1000 ------- 1 2.0 3.0 62 62
+ 0.64 2 4 cbr 1000 ------- 1 2.0 3.0 65 65
- 0.64 2 4 cbr 1000 ------- 1 2.0 3.0 65 65
d 0.640004 1 4 cbr 1000 ------- 1 2.0 3.0 65 65
d 0.640004 0 4 cbr 1000 ------- 1 2.0 3.0 65 65
h 0.644 2 4 cbr 1000 ------- 1 2.0 3.0 68 68
r 0.644004 4 3 cbr 1000 ------- 1 2.0 3.0 63 63
+ 0.648 2 4 cbr 1000 ------- 1 2.0 3.0 66 66
- 0.648 2 4 cbr 1000 ------- 1 2.0 3.0 66 66
d 0.648004 1 4 cbr 1000 ------- 1 2.0 3.0 66 66
d 0.648004 0 4 cbr 1000 ------- 1 2.0 3.0 66 66
h 0.652 2 4 cbr 1000 ------- 1 2.0 3.0 69 69
r 0.652004 4 3 cbr 1000 ------- 1 2.0 3.0 64 64
+ 0.656 2 4 cbr 1000 ------- 1 2.0 3.0 67 67
- 0.656 2 4 cbr 1000 ------- 1 2.0 3.0 67 67
d 0.656004 1 4 cbr 1000 ------- 1 2.0 3.0 67 67
d 0.656004 0 4 cbr 1000 ------- 1 2.0 3.0 67 67
h 0.66 2 4 cbr 1000 ------- 1 2.0 3.0 70 70
r 0.660004 4 3 cbr 1000 ------- 1 2.0 3.0 65 65
+ 0.664 2 4 cbr 1000 ------- 1 2.0 3.0 68 68
- 0.664 2 4 cbr 1000 ------- 1 2.0 3.0 68 68
d 0.664004 1 4 cbr 1000 ------- 1 2.0 3.0 68 68
d 0.664004 0 4 cbr 1000 ------- 1 2.0 3.0 68 68
h 0.668 2 4 cbr 1000 ------- 1 2.0 3.0 71 71
r 0.668004 4 3 cbr 1000 ------- 1 2.0 3.0 66 66
+ 0.672 2 4 cbr 1000 ------- 1 2.0 3.0 69 69
- 0.672 2 4 cbr 1000 ------- 1 2.0 3.0 69 69
d 0.672004 1 4 cbr 1000 ------- 1 2.0 3.0 69 69
d 0.672004 0 4 cbr 1000 ------- 1 2.0 3.0 69 69
h 0.676 2 4 cbr 1000 ------- 1 2.0 3.0 72 72
r 0.676004 4 3 cbr 1000 ------- 1 2.0 3.0 67 67
+ 0.68 2 4 cbr 1000 ------- 1 2.0 3.0 70 70
- 0.68 2 4 cbr 1000 ------- 1 2.0 3.0 70 70
d 0.680004 1 4 cbr 1000 ------- 1 2.0 3.0 70 70
d 0.680004 0 4 cbr 1000 ------- 1 2.0 3.0 70 70
h 0.684 2 4 cbr 1000 ------- 1 2.0 3.0 73 73
r 0.684004 4 3 cbr 1000 ------- 1 2.0 3.0 68 68
+ 0.688 2 4 cbr 1000 ------- 1 2.0 3.0 71 71
- 0.688 2 4 cbr 1000 ------- 1 2.0 3.0 71 71
d 0.688004 1 4 cbr 1000 ------- 1 2.0 3.0 71 71
d 0.688004 0 4 cbr 1000 ------- 1 2.0 3.0 71 71
h 0.692 2 4 cbr 1000 ------- 1 2.0 3.0 74 74
r 0.692004 4 3 cbr 1000 ------- 1 2.0 3.0 69 69
+ 0.696 2 4 cbr 1000 ------- 1 2.0 3.0 72 72
- 0.696 2 4 cbr 1000 ------- 1 2.0 3.0 72 72
d 0.696004 1 4 cbr 1000 ------- 1 2.0 3.0 72 72
d 0.696004 0 4 cbr 1000 ------- 1 2.0 3.0 72 72
h 0.7 2 4 cbr 1000 ------- 1 2.0 3.0 75 75
r 0.700004 4 3 cbr 1000 ------- 1 2.0 3.0 70 70
+ 0.704 2 4 cbr 1000 ------- 1 2.0 3.0 73 73
- 0.704 2 4 cbr 1000 ------- 1 2.0 3.0 73 73
d 0.704004 1 4 cbr 1000 ------- 1 2.0 3.0 73 73
d 0.704004 0 4 cbr 1000 ------- 1 2.0 3.0 73 73
h 0.708 2 4 cbr 1000 ------- 1 2.0 3.0 76 76
r 0.708004 4 3 cbr 1000 ------- 1 2.0 3.0 71 71
+ 0.712 2 4 cbr 1000 ------- 1 2.0 3.0 74 74
- 0.712 2 4 cbr 1000 ------- 1 2.0 3.0 74 74
d 0.712004 1 4 cbr 1000 ------- 1 2.0 3.0 74 74
d 0.712004 0 4 cbr 1000 ------- 1 2.0 3.0 74 74
h 0.716 2 4 cbr 1000 ------- 1 2.0 3.0 77 77
r 0.716004 4 3 cbr 1000 ------- 1 2.0 3.0 72 72
+ 0.72 2 4 cbr 1000 ------- 1 2.0 3.0 75 75
- 0.72 2 4 cbr 1000 ------- 1 2.0 3.0 75 75
d 0.720004 1 4 cbr 1000 ------- 1 2.0 3.0 75 75
d 0.720004 0 4 cbr 1000 ------- 1 2.0 3.0 75 75
h 0.724 2 4 cbr 1000 ------- 1 2.0 3.0 78 78
r 0.724004 4 3 cbr 1000 ------- 1 2.0 3.0 73 73
+ 0.728 2 4 cbr 1000 ------- 1 2.0 3.0 76 76
- 0.728 2 4 cbr 1000 ------- 1 2.0 3.0 76 76
d 0.728004 1 4 cbr 1000 ------- 1 2.0 3.0 76 76
d 0.728004 0 4 cbr 1000 ------- 1 2.0 3.0 76 76
h 0.732 2 4 cbr 1000 ------- 1 2.0 3.0 79 79
r 0.732004 4 3 cbr 1000 ------- 1 2.0 3.0 74 74
+ 0.736 2 4 cbr 1000 ------- 1 2.0 3.0 77 77
- 0.736 2 4 cbr 1000 ------- 1 2.0 3.0 77 77
d 0.736004 1 4 cbr 1000 ------- 1 2.0 3.0 77 77
d 0.736004 0 4 cbr 1000 ------- 1 2.0 3.0 77 77
h 0.74 2 4 cbr 1000 ------- 1 2.0 3.0 80 80
r 0.740004 4 3 cbr 1000 ------- 1 2.0 3.0 75 75
+ 0.744 2 4 cbr 1000 ------- 1 2.0 3.0 78 78
- 0.744 2 4 cbr 1000 ------- 1 2.0 3.0 78 78
d 0.744004 1 4 cbr 1000 ------- 1 2.0 3.0 78 78
d 0.744004 0 4 cbr 1000 ------- 1 2.0 3.0 78 78
h 0.748 2 4 cbr 1000 ------- 1 2.0 3.0 81 81
r 0.748004 4 3 cbr 1000 ------- 1 2.0 3.0 76 76
+ 0.752 2 4 cbr 1000 ------- 1 2.0 3.0 79 79
- 0.752 2 4 cbr 1000 ------- 1 2.0 3.0 79 79
d 0.752004 1 4 cbr 1000 ------- 1 2.0 3.0 79 79
d 0.752004 0 4 cbr 1000 ------- 1 2.0 3.0 79 79
h 0.756 2 4 cbr 1000 ------- 1 2.0 3.0 82 82
r 0.756004 4 3 cbr 1000 ------- 1 2.0 3.0 77 77
+ 0.76 2 4 cbr 1000 ------- 1 2.0 3.0 80 80
- 0.76 2 4 cbr 1000 ------- 1 2.0 3.0 80 80
d 0.760004 1 4 cbr 1000 ------- 1 2.0 3.0 80 80
d 0.760004 0 4 cbr 1000 ------- 1 2.0 3.0 80 80
h 0.764 2 4 cbr 1000 ------- 1 2.0 3.0 83 83
r 0.764004 4 3 cbr 1000 ------- 1 2.0 3.0 78 78
+ 0.768 2 4 cbr 1000 ------- 1 2.0 3.0 81 81
- 0.768 2 4 cbr 1000 ------- 1 2.0 3.0 81 81
d 0.768004 1 4 cbr 1000 ------- 1 2.0 3.0 81 81
d 0.768004 0 4 cbr 1000 ------- 1 2.0 3.0 81 81
h 0.772 2 4 cbr 1000 ------- 1 2.0 3.0 84 84
r 0.772004 4 3 cbr 1000 ------- 1 2.0 3.0 79 79
+ 0.776 2 4 cbr 1000 ------- 1 2.0 3.0 82 82
- 0.776 2 4 cbr 1000 ------- 1 2.0 3.0 82 82
d 0.776004 1 4 cbr 1000 ------- 1 2.0 3.0 82 82
d 0.776004 0 4 cbr 1000 ------- 1 2.0 3.0 82 82
h 0.78 2 4 cbr 1000 ------- 1 2.0 3.0 85 85
r 0.780004 4 3 cbr 1000 ------- 1 2.0 3.0 80 80
+ 0.784 2 4 cbr 1000 ------- 1 2.0 3.0 83 83
- 0.784 2 4 cbr 1000 ------- 1 2.0 3.0 83 83
d 0.784004 1 4 cbr 1000 ------- 1 2.0 3.0 83 83
d 0.784004 0 4 cbr 1000 ------- 1 2.0 3.0 83 83
h 0.788 2 4 cbr 1000 ------- 1 2.0 3.0 86 86
r 0.788004 4 3 cbr 1000 ------- 1 2.0 3.0 81 81
+ 0.792 2 4 cbr 1000 ------- 1 2.0 3.0 84 84
- 0.792 2 4 cbr 1000 ------- 1 2.0 3.0 84 84
d 0.792004 1 4 cbr 1000 ------- 1 2.0 3.0 84 84
d 0.792004 0 4 cbr 1000 ------- 1 2.0 3.0 84 84
h 0.796 2 4 cbr 1000 ------- 1 2.0 3.0 87 87
r 0.796004 4 3 cbr 1000 ------- 1 2.0 3.0 82 82
+ 0.8 2 4 cbr 1000 ------- 1 2.0 3.0 85 85
- 0.8 2 4 cbr 1000 ------- 1 2.0 3.0 85 85
d 0.800004 1 4 cbr 1000 ------- 1 2.0 3.0 85 85
d 0.800004 0 4 cbr 1000 ------- 1 2.0 3.0 85 85
h 0.804 2 4 cbr 1000 ------- 1 2.0 3.0 88 88
r 0.804004 4 3 cbr 1000 ------- 1 2.0 3.0 83 83
+ 0.808 2 4 cbr 1000 ------- 1 2.0 3.0 86 86
- 0.808 2 4 cbr 1000 ------- 1 2.0 3.0 86 86
d 0.808004 1 4 cbr 1000 ------- 1 2.0 3.0 86 86
d 0.808004 0 4 cbr 1000 ------- 1 2.0 3.0 86 86
h 0.812 2 4 cbr 1000 ------- 1 2.0 3.0 89 89
r 0.812004 4 3 cbr 1000 ------- 1 2.0 3.0 84 84
+ 0.816 2 4 cbr 1000 ------- 1 2.0 3.0 87 87
- 0.816 2 4 cbr 1000 ------- 1 2.0 3.0 87 87
d 0.816004 1 4 cbr 1000 ------- 1 2.0 3.0 87 87
d 0.816004 0 4 cbr 1000 ------- 1 2.0 3.0 87 87
h 0.82 2 4 cbr 1000 ------- 1 2.0 3.0 90 90
r 0.820004 4 3 cbr 1000 ------- 1 2.0 3.0 85 85
+ 0.824 2 4 cbr 1000 ------- 1 2.0 3.0 88 88
- 0.824 2 4 cbr 1000 ------- 1 2.0 3.0 88 88
d 0.824004 1 4 cbr 1000 ------- 1 2.0 3.0 88 88
d 0.824004 0 4 cbr 1000 ------- 1 2.0 3.0 88 88
h 0.828 2 4 cbr 1000 ------- 1 2.0 3.0 91 91
r 0.828004 4 3 cbr 1000 ------- 1 2.0 3.0 86 86
+ 0.832 2 4 cbr 1000 ------- 1 2.0 3.0 89 89
- 0.832 2 4 cbr 1000 ------- 1 2.0 3.0 89 89
d 0.832004 1 4 cbr 1000 ------- 1 2.0 3.0 89 89
d 0.832004 0 4 cbr 1000 ------- 1 2.0 3.0 89 89
h 0.836 2 4 cbr 1000 ------- 1 2.0 3.0 92 92
r 0.836004 4 3 cbr 1000 ------- 1 2.0 3.0 87 87
+ 0.84 2 4 cbr 1000 ------- 1 2.0 3.0 90 90
- 0.84 2 4 cbr 1000 ------- 1 2.0 3.0 90 90
d 0.840004 1 4 cbr 1000 ------- 1 2.0 3.0 90 90
d 0.840004 0 4 cbr 1000 ------- 1 2.0 3.0 90 90
h 0.844 2 4 cbr 1000 ------- 1 2.0 3.0 93 93
r 0.844004 4 3 cbr 1000 ------- 1 2.0 3.0 88 88
+ 0.848 2 4 cbr 1000 ------- 1 2.0 3.0 91 91
- 0.848 2 4 cbr 1000 ------- 1 2.0 3.0 91 91
d 0.848004 1 4 cbr 1000 ------- 1 2.0 3.0 91 91
d 0.848004 0 4 cbr 1000 ------- 1 2.0 3.0 91 91
h 0.852 2 4 cbr 1000 ------- 1 2.0 3.0 94 94
r 0.852004 4 3 cbr 1000 ------- 1 2.0 3.0 89 89
+ 0.856 2 4 cbr 1000 ------- 1 2.0 3.0 92 92
- 0.856 2 4 cbr 1000 ------- 1 2.0 3.0 92 92
d 0.856004 1 4 cbr 1000 ------- 1 2.0 3.0 92 92
d 0.856004 0 4 cbr 1000 ------- 1 2.0 3.0 92 92
h 0.86 2 4 cbr 1000 ------- 1 2.0 3.0 95 95
r 0.860004 4 3 cbr 1000 ------- 1 2.0 3.0 90 90
+ 0.864 2 4 cbr 1000 ------- 1 2.0 3.0 93 93
- 0.864 2 4 cbr 1000 ------- 1 2.0 3.0 93 93
d 0.864004 1 4 cbr 1000 ------- 1 2.0 3.0 93 93
d 0.864004 0 4 cbr 1000 ------- 1 2.0 3.0 93 93
h 0.868 2 4 cbr 1000 ------- 1 2.0 3.0 96 96
r 0.868004 4 3 cbr 1000 ------- 1 2.0 3.0 91 91
+ 0.872 2 4 cbr 1000 ------- 1 2.0 3.0 94 94
- 0.872 2 4 cbr 1000 ------- 1 2.0 3.0 94 94
d 0.872004 1 4 cbr 1000 ------- 1 2.0 3.0 94 94
d 0.872004 0 4 cbr 1000 ------- 1 2.0 3.0 94 94
h 0.876 2 4 cbr 1000 ------- 1 2.0 3.0 97 97
r 0.876004 4 3 cbr 1000 ------- 1 2.0 3.0 92 92
+ 0.88 2 4 cbr 1000 ------- 1 2.0 3.0 95 95
- 0.88 2 4 cbr 1000 ------- 1 2.0 3.0 95 95
d 0.880004 1 4 cbr 1000 ------- 1 2.0 3.0 95 95
d 0.880004 0 4 cbr 1000 ------- 1 2.0 3.0 95 95
h 0.884 2 4 cbr 1000 ------- 1 2.0 3.0 98 98
r 0.884004 4 3 cbr 1000 ------- 1 2.0 3.0 93 93
+ 0.888 2 4 cbr 1000 ------- 1 2.0 3.0 96 96
- 0.888 2 4 cbr 1000 ------- 1 2.0 3.0 96 96
d 0.888004 1 4 cbr 1000 ------- 1 2.0 3.0 96 96
d 0.888004 0 4 cbr 1000 ------- 1 2.0 3.0 96 96
h 0.892 2 4 cbr 1000 ------- 1 2.0 3.0 99 99
r 0.892004 4 3 cbr 1000 ------- 1 2.0 3.0 94 94
+ 0.896 2 4 cbr 1000 ------- 1 2.0 3.0 97 97
- 0.896 2 4 cbr 1000 ------- 1 2.0 3.0 97 97
d 0.896004 1 4 cbr 1000 ------- 1 2.0 3.0 97 97
d 0.896004 0 4 cbr 1000 ------- 1 2.0 3.0 97 97
h 0.9 2 4 cbr 1000 ------- 1 2.0 3.0 100 100
r 0.900004 4 3 cbr 1000 ------- 1 2.0 3.0 95 95
+ 0.904 2 4 cbr 1000 ------- 1 2.0 3.0 98 98
- 0.904 2 4 cbr 1000 ------- 1 2.0 3.0 98 98
d 0.904004 1 4 cbr 1000 ------- 1 2.0 3.0 98 98
d 0.904004 0 4 cbr 1000 ------- 1 2.0 3.0 98 98
h 0.908 2 4 cbr 1000 ------- 1 2.0 3.0 101 101
r 0.908004 4 3 cbr 1000 ------- 1 2.0 3.0 96 96
+ 0.912 2 4 cbr 1000 ------- 1 2.0 3.0 99 99
- 0.912 2 4 cbr 1000 ------- 1 2.0 3.0 99 99
d 0.912004 1 4 cbr 1000 ------- 1 2.0 3.0 99 99
d 0.912004 0 4 cbr 1000 ------- 1 2.0 3.0 99 99
h 0.916 2 4 cbr 1000 ------- 1 2.0 3.0 102 102
r 0.916004 4 3 cbr 1000 ------- 1 2.0 3.0 97 97
+ 0.92 2 4 cbr 1000 ------- 1 2.0 3.0 100 100
- 0.92 2 4 cbr 1000 ------- 1 2.0 3.0 100 100
d 0.920004 1 4 cbr 1000 ------- 1 2.0 3.0 100 100
d 0.920004 0 4 cbr 1000 ------- 1 2.0 3.0 100 100
h 0.924 2 4 cbr 1000 ------- 1 2.0 3.0 103 103
r 0.924004 4 3 cbr 1000 ------- 1 2.0 3.0 98 98
+ 0.928 2 4 cbr 1000 ------- 1 2.0 3.0 101 101
- 0.928 2 4 cbr 1000 ------- 1 2.0 3.0 101 101
d 0.928004 1 4 cbr 1000 ------- 1 2.0 3.0 101 101
d 0.928004 0 4 cbr 1000 ------- 1 2.0 3.0 101 101
h 0.932 2 4 cbr 1000 ------- 1 2.0 3.0 104 104
r 0.932004 4 3 cbr 1000 ------- 1 2.0 3.0 99 99
+ 0.936 2 4 cbr 1000 ------- 1 2.0 3.0 102 102
- 0.936 2 4 cbr 1000 ------- 1 2.0 3.0 102 102
d 0.936004 1 4 cbr 1000 ------- 1 2.0 3.0 102 102
d 0.936004 0 4 cbr 1000 ------- 1 2.0 3.0 102 102
h 0.94 2 4 cbr 1000 ------- 1 2.0 3.0 105 105
r 0.940004 4 3 cbr 1000 ------- 1 2.0 3.0 100 100
+ 0.944 2 4 cbr 1000 ------- 1 2.0 3.0 103 103
- 0.944 2 4 cbr 1000 ------- 1 2.0 3.0 103 103
d 0.944004 1 4 cbr 1000 ------- 1 2.0 3.0 103 103
d 0.944004 0 4 cbr 1000 ------- 1 2.0 3.0 103 103
h 0.948 2 4 cbr 1000 ------- 1 2.0 3.0 106 106
r 0.948004 4 3 cbr 1000 ------- 1 2.0 3.0 101 101
+ 0.952 2 4 cbr 1000 ------- 1 2.0 3.0 104 104
- 0.952 2 4 cbr 1000 ------- 1 2.0 3.0 104 104
d 0.952004 1 4 cbr 1000 ------- 1 2.0 3.0 104 104
d 0.952004 0 4 cbr 1000 ------- 1 2.0 3.0 104 104
h 0.956 2 4 cbr 1000 ------- 1 2.0 3.0 107 107
r 0.956004 4 3 cbr 1000 ------- 1 2.0 3.0 102 102
+ 0.96 2 4 cbr 1000 ------- 1 2.0 3.0 105 105
- 0.96 2 4 cbr 1000 ------- 1 2.0 3.0 105 105
d 0.960004 1 4 cbr 1000 ------- 1 2.0 3.0 105 105
d 0.960004 0 4 cbr 1000 ------- 1 2.0 3.0 105 105
h 0.964 2 4 cbr 1000 ------- 1 2.0 3.0 108 108
r 0.964004 4 3 cbr 1000 ------- 1 2.0 3.0 103 103
+ 0.968 2 4 cbr 1000 ------- 1 2.0 3.0 106 106
- 0.968 2 4 cbr 1000 ------- 1 2.0 3.0 106 106
d 0.968004 1 4 cbr 1000 ------- 1 2.0 3.0 106 106
d 0.968004 0 4 cbr 1000 ------- 1 2.0 3.0 106 106
h 0.972 2 4 cbr 1000 ------- 1 2.0 3.0 109 109
r 0.972004 4 3 cbr 1000 ------- 1 2.0 3.0 104 104
+ 0.976 2 4 cbr 1000 ------- 1 2.0 3.0 107 107
- 0.976 2 4 cbr 1000 ------- 1 2.0 3.0 107 107
d 0.976004 1 4 cbr 1000 ------- 1 2.0 3.0 107 107
d 0.976004 0 4 cbr 1000 ------- 1 2.0 3.0 107 107